    3    3    1    1
  0.1229612E+02  0.3736527E-09  0.3736527E-09  0.3736527E-09  0.2500000E-15
  1.000000000000000E-004
  CAR 
 be2si                                   
   12 2800   16
 
  0.0000000E+00  0.0000000E+00  0.0000000E+00  0.3571429E-03
   1      -95.363490
   2      -95.360785
   3       -6.188512
   4        6.247018
   5        6.247018
   6        6.247386
   7        6.650726
   8        6.650726
   9        6.650794
  10       11.896553
  11       13.202850
  12       13.281696
  13       13.281696
  14       13.282043
  15       14.147131
  16       14.147131
 
  0.1253133E-02  0.1253133E-02  0.1253133E-02  0.3571429E-03
   1      -95.363490
   2      -95.360785
   3       -6.188492
   4        6.246296
   5        6.246771
   6        6.246771
   7        6.650984
   8        6.650984
   9        6.651789
  10       11.896608
  11       13.202884
  12       13.281235
  13       13.281235
  14       13.282098
  15       14.147669
  16       14.147669
 
  0.2506266E-02  0.2506266E-02  0.2506266E-02  0.3571429E-03
   1      -95.363490
   2      -95.360785
   3       -6.188431
   4        6.243060
   5        6.246032
   6        6.246032
   7        6.651756
   8        6.651756
   9        6.654739
  10       11.896772
  11       13.202985
  12       13.279853
  13       13.279853
  14       13.282261
  15       14.149279
  16       14.149279
 
  0.3759398E-02  0.3759398E-02  0.3759398E-02  0.3571429E-03
   1      -95.363490
   2      -95.360785
   3       -6.188330
   4        6.237767
   5        6.244806
   6        6.244806
   7        6.653035
   8        6.653035
   9        6.659555
  10       11.897046
  11       13.203153
  12       13.277562
  13       13.277562
  14       13.282533
  15       14.151950
  16       14.151950
 
  0.5012531E-02  0.5012531E-02  0.5012531E-02  0.3571429E-03
   1      -95.363490
   2      -95.360785
   3       -6.188188
   4        6.230556
   5        6.243104
   6        6.243104
   7        6.654813
   8        6.654813
   9        6.666099
  10       11.897429
  11       13.203387
  12       13.274379
  13       13.274379
  14       13.282916
  15       14.155667
  16       14.155667
 
  0.6265664E-02  0.6265664E-02  0.6265664E-02  0.3571429E-03
   1      -95.363490
   2      -95.360785
   3       -6.188005
   4        6.221594
   5        6.240936
   6        6.240936
   7        6.657077
   8        6.657077
   9        6.674203
  10       11.897921
  11       13.203686
  12       13.270326
  13       13.270326
  14       13.283410
  15       14.160405
  16       14.160405
 
  0.7518797E-02  0.7518797E-02  0.7518797E-02  0.3571429E-03
   1      -95.363489
   2      -95.360785
   3       -6.187781
   4        6.211062
   5        6.238320
   6        6.238320
   7        6.659812
   8        6.659812
   9        6.683686
  10       11.898522
  11       13.204048
  12       13.265431
  13       13.265431
  14       13.284018
  15       14.166137
  16       14.166137
 
  0.8771930E-02  0.8771930E-02  0.8771930E-02  0.3571429E-03
   1      -95.363489
   2      -95.360785
   3       -6.187516
   4        6.199141
   5        6.235271
   6        6.235271
   7        6.663001
   8        6.663001
   9        6.694368
  10       11.899232
  11       13.204473
  12       13.259727
  13       13.259727
  14       13.284741
  15       14.172830
  16       14.172830
 
  0.1002506E-01  0.1002506E-01  0.1002506E-01  0.3571429E-03
   1      -95.363489
   2      -95.360786
   3       -6.187211
   4        6.186002
   5        6.231811
   6        6.231811
   7        6.666623
   8        6.666623
   9        6.706078
  10       11.900049
  11       13.204957
  12       13.253251
  13       13.253251
  14       13.285581
  15       14.180449
  16       14.180449
 
  0.1127820E-01  0.1127820E-01  0.1127820E-01  0.3571429E-03
   1      -95.363489
   2      -95.360786
   3       -6.186864
   4        6.171801
   5        6.227959
   6        6.227959
   7        6.670657
   8        6.670657
   9        6.718660
  10       11.900974
  11       13.205498
  12       13.246040
  13       13.246040
  14       13.286542
  15       14.188954
  16       14.188954
 
  0.1253133E-01  0.1253133E-01  0.1253133E-01  0.3571429E-03
   1      -95.363489
   2      -95.360786
   3       -6.186477
   4        6.156675
   5        6.223737
   6        6.223737
   7        6.675083
   8        6.675083
   9        6.731976
  10       11.902006
  11       13.206095
  12       13.238136
  13       13.238136
  14       13.287625
  15       14.198306
  16       14.198306
 
  0.1378446E-01  0.1378446E-01  0.1378446E-01  0.3571429E-03
   1      -95.363488
   2      -95.360786
   3       -6.186050
   4        6.140744
   5        6.219167
   6        6.219167
   7        6.679877
   8        6.679877
   9        6.745907
  10       11.903145
  11       13.206744
  12       13.229580
  13       13.229580
  14       13.288836
  15       14.208462
  16       14.208462
 
  0.1503759E-01  0.1503759E-01  0.1503759E-01  0.3571429E-03
   1      -95.363488
   2      -95.360786
   3       -6.185581
   4        6.124112
   5        6.214272
   6        6.214272
   7        6.685018
   8        6.685018
   9        6.760349
  10       11.904389
  11       13.207442
  12       13.220414
  13       13.220414
  14       13.290175
  15       14.219381
  16       14.219381
 
  0.1629073E-01  0.1629073E-01  0.1629073E-01  0.3571429E-03
   1      -95.363488
   2      -95.360787
   3       -6.185071
   4        6.106865
   5        6.209073
   6        6.209073
   7        6.690484
   8        6.690484
   9        6.775216
  10       11.905739
  11       13.208186
  12       13.210679
  13       13.210679
  14       13.291649
  15       14.231021
  16       14.231021
 
  0.1754386E-01  0.1754386E-01  0.1754386E-01  0.3571429E-03
   1      -95.363432
   2      -95.360787
   3       -6.184513
   4        6.089080
   5        6.203590
   6        6.203590
   7        6.696254
   8        6.696254
   9        6.790432
  10       11.907208
  11       13.200417
  12       13.200417
  13       13.208976
  14       13.293268
  15       14.243348
  16       14.243348
 
  0.1879699E-01  0.1879699E-01  0.1879699E-01  0.3571429E-03
   1      -95.363432
   2      -95.360787
   3       -6.183922
   4        6.070818
   5        6.197845
   6        6.197845
   7        6.702306
   8        6.702306
   9        6.805935
  10       11.908765
  11       13.189666
  12       13.189666
  13       13.209804
  14       13.295020
  15       14.256311
  16       14.256311
 
  0.2005013E-01  0.2005013E-01  0.2005013E-01  0.3571429E-03
   1      -95.363431
   2      -95.360787
   3       -6.183290
   4        6.052134
   5        6.191857
   6        6.191857
   7        6.708622
   8        6.708622
   9        6.821670
  10       11.910425
  11       13.178465
  12       13.178465
  13       13.210669
  14       13.296917
  15       14.269877
  16       14.269877
 
  0.2130326E-01  0.2130326E-01  0.2130326E-01  0.3571429E-03
   1      -95.363431
   2      -95.360788
   3       -6.182617
   4        6.033073
   5        6.185645
   6        6.185645
   7        6.715182
   8        6.715182
   9        6.837593
  10       11.912187
  11       13.166849
  12       13.166849
  13       13.211567
  14       13.298964
  15       14.284011
  16       14.284011
 
  0.2255639E-01  0.2255639E-01  0.2255639E-01  0.3571429E-03
   1      -95.363431
   2      -95.360788
   3       -6.181904
   4        6.013674
   5        6.179225
   6        6.179225
   7        6.721970
   8        6.721970
   9        6.853665
  10       11.914050
  11       13.154855
  12       13.154855
  13       13.212495
  14       13.301163
  15       14.298678
  16       14.298678
 
  0.2380952E-01  0.2380952E-01  0.2380952E-01  0.3571429E-03
   1      -95.363430
   2      -95.360788
   3       -6.181150
   4        5.993970
   5        6.172615
   6        6.172615
   7        6.728968
   8        6.728968
   9        6.869853
  10       11.916013
  11       13.142513
  12       13.142513
  13       13.213450
  14       13.303520
  15       14.313846
  16       14.313846
 
  0.2506266E-01  0.2506266E-01  0.2506266E-01  0.3571429E-03
   1      -95.363430
   2      -95.360789
   3       -6.180355
   4        5.973991
   5        6.165829
   6        6.165829
   7        6.736160
   8        6.736160
   9        6.886128
  10       11.918074
  11       13.129854
  12       13.129854
  13       13.214430
  14       13.306038
  15       14.329484
  16       14.329484
 
  0.2631579E-01  0.2631579E-01  0.2631579E-01  0.3571429E-03
   1      -95.363429
   2      -95.360789
   3       -6.179519
   4        5.953759
   5        6.158882
   6        6.158882
   7        6.743533
   8        6.743533
   9        6.902466
  10       11.920233
  11       13.116908
  12       13.116908
  13       13.215431
  14       13.308721
  15       14.345565
  16       14.345565
 
  0.2756892E-01  0.2756892E-01  0.2756892E-01  0.3571429E-03
   1      -95.363429
   2      -95.360789
   3       -6.178642
   4        5.933298
   5        6.151787
   6        6.151787
   7        6.751073
   8        6.751073
   9        6.918846
  10       11.922488
  11       13.103701
  12       13.103701
  13       13.216451
  14       13.311572
  15       14.362061
  16       14.362061
 
  0.2882206E-01  0.2882206E-01  0.2882206E-01  0.3571429E-03
   1      -95.363429
   2      -95.360790
   3       -6.177725
   4        5.912625
   5        6.144556
   6        6.144556
   7        6.758768
   8        6.758768
   9        6.935250
  10       11.924838
  11       13.090258
  12       13.090258
  13       13.217487
  14       13.314595
  15       14.378948
  16       14.378948
 
  0.3007519E-01  0.3007519E-01  0.3007519E-01  0.3571429E-03
   1      -95.363428
   2      -95.360790
   3       -6.176767
   4        5.891756
   5        6.137201
   6        6.137201
   7        6.766605
   8        6.766605
   9        6.951661
  10       11.927282
  11       13.076601
  12       13.076601
  13       13.218538
  14       13.317793
  15       14.396202
  16       14.396202
 
  0.3132832E-01  0.3132832E-01  0.3132832E-01  0.3571429E-03
   1      -95.363428
   2      -95.360791
   3       -6.175768
   4        5.870705
   5        6.129732
   6        6.129732
   7        6.774575
   8        6.774575
   9        6.968067
  10       11.929817
  11       13.062753
  12       13.062753
  13       13.219601
  14       13.321170
  15       14.413803
  16       14.413803
 
  0.3258145E-01  0.3258145E-01  0.3258145E-01  0.3571429E-03
   1      -95.363427
   2      -95.360791
   3       -6.174729
   4        5.849486
   5        6.122159
   6        6.122159
   7        6.782666
   8        6.782666
   9        6.984454
  10       11.932444
  11       13.048734
  12       13.048734
  13       13.220675
  14       13.324727
  15       14.431732
  16       14.431732
 
  0.3383459E-01  0.3383459E-01  0.3383459E-01  0.3571429E-03
   1      -95.363315
   2      -95.360792
   3       -6.173631
   4        5.828109
   5        6.114490
   6        6.114490
   7        6.790871
   8        6.790871
   9        7.000812
  10       11.935187
  11       13.034563
  12       13.034563
  13       13.221758
  14       13.328485
  15       14.449983
  16       14.449983
 
  0.3508772E-01  0.3508772E-01  0.3508772E-01  0.3571429E-03
   1      -95.363315
   2      -95.360792
   3       -6.172510
   4        5.806584
   5        6.106734
   6        6.106734
   7        6.799179
   8        6.799179
   9        7.017131
  10       11.937991
  11       13.020255
  12       13.020255
  13       13.222850
  14       13.332412
  15       14.468511
  16       14.468511
 
  0.3634085E-01  0.3634085E-01  0.3634085E-01  0.3571429E-03
   1      -95.363314
   2      -95.360793
   3       -6.171348
   4        5.784920
   5        6.098899
   6        6.098899
   7        6.807584
   8        6.807584
   9        7.033404
  10       11.940880
  11       13.005826
  12       13.005826
  13       13.223949
  14       13.336528
  15       14.487315
  16       14.487315
 
  0.3759398E-01  0.3759398E-01  0.3759398E-01  0.3571429E-03
   1      -95.363313
   2      -95.360793
   3       -6.170146
   4        5.763124
   5        6.090991
   6        6.090991
   7        6.816078
   8        6.816078
   9        7.049621
  10       11.943854
  11       12.991293
  12       12.991293
  13       13.225056
  14       13.340833
  15       14.506381
  16       14.506381
 
  0.3884712E-01  0.3884712E-01  0.3884712E-01  0.3571429E-03
   1      -95.363313
   2      -95.360794
   3       -6.168903
   4        5.741204
   5        6.083017
   6        6.083017
   7        6.824654
   8        6.824654
   9        7.065777
  10       11.946911
  11       12.976669
  12       12.976669
  13       13.226169
  14       13.345329
  15       14.525695
  16       14.525695
 
  0.4010025E-01  0.4010025E-01  0.4010025E-01  0.3571429E-03
   1      -95.363312
   2      -95.360795
   3       -6.167619
   4        5.719167
   5        6.074983
   6        6.074983
   7        6.833305
   8        6.833305
   9        7.081865
  10       11.950049
  11       12.961966
  12       12.961966
  13       13.227289
  14       13.350019
  15       14.545244
  16       14.545244
 
  0.4135338E-01  0.4135338E-01  0.4135338E-01  0.3571429E-03
   1      -95.363311
   2      -95.360795
   3       -6.166294
   4        5.697018
   5        6.066895
   6        6.066895
   7        6.842027
   8        6.842027
   9        7.097880
  10       11.953265
  11       12.947197
  12       12.947197
  13       13.228416
  14       13.354903
  15       14.565017
  16       14.565017
 
  0.4260652E-01  0.4260652E-01  0.4260652E-01  0.3571429E-03
   1      -95.363311
   2      -95.360796
   3       -6.164929
   4        5.674763
   5        6.058757
   6        6.058757
   7        6.850813
   8        6.850813
   9        7.113817
  10       11.956560
  11       12.932371
  12       12.932371
  13       13.229551
  14       13.359982
  15       14.585004
  16       14.585004
 
  0.4385965E-01  0.4385965E-01  0.4385965E-01  0.3571429E-03
   1      -95.363310
   2      -95.360797
   3       -6.163522
   4        5.652406
   5        6.050574
   6        6.050574
   7        6.859658
   8        6.859658
   9        7.129672
  10       11.959929
  11       12.917500
  12       12.917500
  13       13.230693
  14       13.365258
  15       14.605194
  16       14.605194
 
  0.4511278E-01  0.4511278E-01  0.4511278E-01  0.3571429E-03
   1      -95.363309
   2      -95.360797
   3       -6.162076
   4        5.629952
   5        6.042352
   6        6.042352
   7        6.868557
   8        6.868557
   9        7.145440
  10       11.963373
  11       12.902593
  12       12.902593
  13       13.231843
  14       13.370731
  15       14.625579
  16       14.625579
 
  0.4636591E-01  0.4636591E-01  0.4636591E-01  0.3571429E-03
   1      -95.363309
   2      -95.360798
   3       -6.160588
   4        5.607406
   5        6.034093
   6        6.034093
   7        6.877506
   8        6.877506
   9        7.161117
  10       11.966887
  11       12.887659
  12       12.887659
  13       13.233002
  14       13.376403
  15       14.646150
  16       14.646150
 
  0.4761905E-01  0.4761905E-01  0.4761905E-01  0.3571429E-03
   1      -95.363308
   2      -95.360799
   3       -6.159060
   4        5.584771
   5        6.025801
   6        6.025801
   7        6.886501
   8        6.886501
   9        7.176701
  10       11.970472
  11       12.872707
  12       12.872707
  13       13.234170
  14       13.382274
  15       14.666898
  16       14.666898
 
  0.4887218E-01  0.4887218E-01  0.4887218E-01  0.3571429E-03
   1      -95.363307
   2      -95.360800
   3       -6.157491
   4        5.562051
   5        6.017480
   6        6.017480
   7        6.895538
   8        6.895538
   9        7.192188
  10       11.974123
  11       12.857743
  12       12.857743
  13       13.235350
  14       13.388344
  15       14.687817
  16       14.687817
 
  0.5012531E-01  0.5012531E-01  0.5012531E-01  0.3571429E-03
   1      -95.363306
   2      -95.360801
   3       -6.155882
   4        5.539249
   5        6.009134
   6        6.009134
   7        6.904612
   8        6.904612
   9        7.207575
  10       11.977840
  11       12.842775
  12       12.842775
  13       13.236540
  14       13.394616
  15       14.708900
  16       14.708900
 
  0.5137845E-01  0.5137845E-01  0.5137845E-01  0.3571429E-03
   1      -95.363306
   2      -95.360801
   3       -6.154231
   4        5.516368
   5        6.000765
   6        6.000765
   7        6.913721
   8        6.913721
   9        7.222860
  10       11.981620
  11       12.827810
  12       12.827810
  13       13.237744
  14       13.401088
  15       14.730140
  16       14.730140
 
  0.5263158E-01  0.5263158E-01  0.5263158E-01  0.3571429E-03
   1      -95.363305
   2      -95.360802
   3       -6.152541
   4        5.493411
   5        5.992376
   6        5.992376
   7        6.922861
   8        6.922861
   9        7.238040
  10       11.985461
  11       12.812855
  12       12.812855
  13       13.238961
  14       13.407763
  15       14.751531
  16       14.751531
 
  0.5388471E-01  0.5388471E-01  0.5388471E-01  0.3571429E-03
   1      -95.363304
   2      -95.360803
   3       -6.150809
   4        5.470381
   5        5.983970
   6        5.983970
   7        6.932029
   8        6.932029
   9        7.253113
  10       11.989361
  11       12.797915
  12       12.797915
  13       13.240193
  14       13.414639
  15       14.773068
  16       14.773068
 
  0.5513784E-01  0.5513784E-01  0.5513784E-01  0.3571429E-03
   1      -95.363303
   2      -95.360804
   3       -6.149037
   4        5.447281
   5        5.975549
   6        5.975549
   7        6.941222
   8        6.941222
   9        7.268078
  10       11.993317
  11       12.782996
  12       12.782996
  13       13.241440
  14       13.421719
  15       14.794745
  16       14.794745
 
  0.5639098E-01  0.5639098E-01  0.5639098E-01  0.3571429E-03
   1      -95.363302
   2      -95.360805
   3       -6.147224
   4        5.424113
   5        5.967115
   6        5.967115
   7        6.950437
   8        6.950437
   9        7.282932
  10       11.997327
  11       12.768104
  12       12.768104
  13       13.242705
  14       13.429002
  15       14.816558
  16       14.816558
 
  0.5764411E-01  0.5764411E-01  0.5764411E-01  0.3571429E-03
   1      -95.363302
   2      -95.360806
   3       -6.145371
   4        5.400880
   5        5.958671
   6        5.958671
   7        6.959671
   8        6.959671
   9        7.297673
  10       12.001389
  11       12.753243
  12       12.753243
  13       13.243988
  14       13.436490
  15       14.838503
  16       14.838503
 
  0.5889724E-01  0.5889724E-01  0.5889724E-01  0.3571429E-03
   1      -95.363301
   2      -95.360807
   3       -6.143477
   4        5.377583
   5        5.950219
   6        5.950219
   7        6.968922
   8        6.968922
   9        7.312300
  10       12.005501
  11       12.738418
  12       12.738418
  13       13.245290
  14       13.444182
  15       14.860573
  16       14.860573
 
  0.6015038E-01  0.6015038E-01  0.6015038E-01  0.3571429E-03
   1      -95.363300
   2      -95.360808
   3       -6.141542
   4        5.354225
   5        5.941760
   6        5.941760
   7        6.978188
   8        6.978188
   9        7.326812
  10       12.009660
  11       12.723634
  12       12.723634
  13       13.246612
  14       13.452079
  15       14.882767
  16       14.882767
 
  0.6140351E-01  0.6140351E-01  0.6140351E-01  0.3571429E-03
   1      -95.363299
   2      -95.360809
   3       -6.139567
   4        5.330808
   5        5.933296
   6        5.933296
   7        6.987465
   8        6.987465
   9        7.341207
  10       12.013863
  11       12.708895
  12       12.708895
  13       13.247956
  14       13.460182
  15       14.905079
  16       14.905079
 
  0.6265664E-01  0.6265664E-01  0.6265664E-01  0.3571429E-03
   1      -95.363298
   2      -95.360810
   3       -6.137551
   4        5.307333
   5        5.924829
   6        5.924829
   7        6.996753
   8        6.996753
   9        7.355483
  10       12.018109
  11       12.694205
  12       12.694205
  13       13.249323
  14       13.468491
  15       14.927507
  16       14.927507
 
  0.6390977E-01  0.6390977E-01  0.6390977E-01  0.3571429E-03
   1      -95.363297
   2      -95.360811
   3       -6.135495
   4        5.283803
   5        5.916361
   6        5.916361
   7        7.006047
   8        7.006047
   9        7.369641
  10       12.022395
  11       12.679568
  12       12.679568
  13       13.250714
  14       13.477008
  15       14.950047
  16       14.950047
 
  0.6516291E-01  0.6516291E-01  0.6516291E-01  0.3571429E-03
   1      -95.363296
   2      -95.360812
   3       -6.133398
   4        5.260219
   5        5.907892
   6        5.907892
   7        7.015347
   8        7.015347
   9        7.383678
  10       12.026718
  11       12.664987
  12       12.664987
  13       13.252130
  14       13.485732
  15       14.972695
  16       14.972695
 
  0.6641604E-01  0.6641604E-01  0.6641604E-01  0.3571429E-03
   1      -95.363295
   2      -95.360813
   3       -6.131260
   4        5.236584
   5        5.899425
   6        5.899425
   7        7.024651
   8        7.024651
   9        7.397595
  10       12.031077
  11       12.650467
  12       12.650467
  13       13.253572
  14       13.494664
  15       14.995450
  16       14.995450
 
  0.6766917E-01  0.6766917E-01  0.6766917E-01  0.3571429E-03
   1      -95.363294
   2      -95.360814
   3       -6.129082
   4        5.212898
   5        5.890961
   6        5.890961
   7        7.033956
   8        7.033956
   9        7.411389
  10       12.035468
  11       12.636010
  12       12.636010
  13       13.255041
  14       13.503805
  15       15.018307
  16       15.018307
 
  0.6892231E-01  0.6892231E-01  0.6892231E-01  0.3571429E-03
   1      -95.363293
   2      -95.360815
   3       -6.126863
   4        5.189163
   5        5.882500
   6        5.882500
   7        7.043260
   8        7.043260
   9        7.425061
  10       12.039889
  11       12.621620
  12       12.621620
  13       13.256539
  14       13.513155
  15       15.041264
  16       15.041264
 
  0.7017544E-01  0.7017544E-01  0.7017544E-01  0.3571429E-03
   1      -95.363292
   2      -95.360816
   3       -6.124604
   4        5.165382
   5        5.874044
   6        5.874044
   7        7.052562
   8        7.052562
   9        7.438609
  10       12.044337
  11       12.607300
  12       12.607300
  13       13.258067
  14       13.522715
  15       15.064319
  16       15.064319
 
  0.7142857E-01  0.7142857E-01  0.7142857E-01  0.3571429E-03
   1      -95.363291
   2      -95.360818
   3       -6.122305
   4        5.141554
   5        5.865595
   6        5.865595
   7        7.061859
   8        7.061859
   9        7.452034
  10       12.048811
  11       12.593053
  12       12.593053
  13       13.259625
  14       13.532486
  15       15.087470
  16       15.087470
 
  0.7268170E-01  0.7268170E-01  0.7268170E-01  0.3571429E-03
   1      -95.363289
   2      -95.360819
   3       -6.119964
   4        5.117682
   5        5.857152
   6        5.857152
   7        7.071151
   8        7.071151
   9        7.465334
  10       12.053308
  11       12.578881
  12       12.578881
  13       13.261215
  14       13.542468
  15       15.110713
  16       15.110713
 
  0.7393484E-01  0.7393484E-01  0.7393484E-01  0.3571429E-03
   1      -95.363288
   2      -95.360874
   3       -6.117584
   4        5.093763
   5        5.848718
   6        5.848718
   7        7.080435
   8        7.080435
   9        7.478508
  10       12.057824
  11       12.564788
  12       12.564788
  13       13.262759
  14       13.552659
  15       15.134047
  16       15.134047
 
  0.7518797E-01  0.7518797E-01  0.7518797E-01  0.3571429E-03
   1      -95.363287
   2      -95.360876
   3       -6.115163
   4        5.069807
   5        5.840292
   6        5.840292
   7        7.089710
   8        7.089710
   9        7.491557
  10       12.062359
  11       12.550777
  12       12.550777
  13       13.264415
  14       13.563064
  15       15.157470
  16       15.157470
 
  0.7644110E-01  0.7644110E-01  0.7644110E-01  0.3571429E-03
   1      -95.363286
   2      -95.360877
   3       -6.112701
   4        5.045811
   5        5.831877
   6        5.831877
   7        7.098973
   8        7.098973
   9        7.504481
  10       12.066908
  11       12.536849
  12       12.536849
  13       13.266107
  14       13.573682
  15       15.180980
  16       15.180980
 
  0.7769424E-01  0.7769424E-01  0.7769424E-01  0.3571429E-03
   1      -95.363285
   2      -95.360878
   3       -6.110199
   4        5.021776
   5        5.823472
   6        5.823472
   7        7.108224
   8        7.108224
   9        7.517278
  10       12.071471
  11       12.523007
  12       12.523007
  13       13.267834
  14       13.584513
  15       15.204574
  16       15.204574
 
  0.7894737E-01  0.7894737E-01  0.7894737E-01  0.3571429E-03
   1      -95.363283
   2      -95.360880
   3       -6.107656
   4        4.997703
   5        5.815079
   6        5.815079
   7        7.117461
   8        7.117461
   9        7.529949
  10       12.076044
  11       12.509254
  12       12.509254
  13       13.269599
  14       13.595558
  15       15.228251
  16       15.228251
 
  0.8020050E-01  0.8020050E-01  0.8020050E-01  0.3571429E-03
   1      -95.363282
   2      -95.360881
   3       -6.105073
   4        4.973594
   5        5.806698
   6        5.806698
   7        7.126681
   8        7.126681
   9        7.542493
  10       12.080625
  11       12.495592
  12       12.495592
  13       13.271401
  14       13.606817
  15       15.252009
  16       15.252009
 
  0.8145363E-01  0.8145363E-01  0.8145363E-01  0.3571429E-03
   1      -95.363281
   2      -95.360882
   3       -6.102450
   4        4.949449
   5        5.798331
   6        5.798331
   7        7.135885
   8        7.135885
   9        7.554911
  10       12.085211
  11       12.482024
  12       12.482024
  13       13.273243
  14       13.618290
  15       15.275847
  16       15.275847
 
  0.8270677E-01  0.8270677E-01  0.8270677E-01  0.3571429E-03
   1      -95.363280
   2      -95.360884
   3       -6.099786
   4        4.925271
   5        5.789977
   6        5.789977
   7        7.145069
   8        7.145069
   9        7.567201
  10       12.089800
  11       12.468551
  12       12.468551
  13       13.275125
  14       13.629978
  15       15.299763
  16       15.299763
 
  0.8395990E-01  0.8395990E-01  0.8395990E-01  0.3571429E-03
   1      -95.363278
   2      -95.360995
   3       -6.097083
   4        4.901030
   5        5.781636
   6        5.781636
   7        7.154233
   8        7.154233
   9        7.579356
  10       12.094389
  11       12.455176
  12       12.455176
  13       13.276896
  14       13.641857
  15       15.323755
  16       15.323755
 
  0.8521303E-01  0.8521303E-01  0.8521303E-01  0.3571429E-03
   1      -95.363277
   2      -95.360996
   3       -6.094339
   4        4.876787
   5        5.773312
   6        5.773312
   7        7.163375
   8        7.163375
   9        7.591393
  10       12.098978
  11       12.441901
  12       12.441901
  13       13.278861
  14       13.653975
  15       15.347823
  16       15.347823
 
  0.8646617E-01  0.8646617E-01  0.8646617E-01  0.3571429E-03
   1      -95.363276
   2      -95.360998
   3       -6.091554
   4        4.852512
   5        5.765003
   6        5.765003
   7        7.172494
   8        7.172494
   9        7.603302
  10       12.103562
  11       12.428729
  12       12.428729
  13       13.280869
  14       13.666310
  15       15.371963
  16       15.371963
 
  0.8771930E-01  0.8771930E-01  0.8771930E-01  0.3571429E-03
   1      -95.363275
   2      -95.360999
   3       -6.088728
   4        4.828208
   5        5.756710
   6        5.756710
   7        7.181588
   8        7.181588
   9        7.615084
  10       12.108140
  11       12.415661
  12       12.415661
  13       13.282921
  14       13.678860
  15       15.396176
  16       15.396176
 
  0.8897243E-01  0.8897243E-01  0.8897243E-01  0.3571429E-03
   1      -95.363273
   2      -95.361001
   3       -6.085863
   4        4.803876
   5        5.748434
   6        5.748434
   7        7.190655
   8        7.190655
   9        7.626740
  10       12.112710
  11       12.402698
  12       12.402698
  13       13.285018
  14       13.691627
  15       15.420460
  16       15.420460
 
  0.9022556E-01  0.9022556E-01  0.9022556E-01  0.3571429E-03
   1      -95.363272
   2      -95.361002
   3       -6.082957
   4        4.779515
   5        5.740176
   6        5.740176
   7        7.199695
   8        7.199695
   9        7.638269
  10       12.117269
  11       12.389845
  12       12.389845
  13       13.287161
  14       13.704611
  15       15.444813
  16       15.444813
 
  0.9147870E-01  0.9147870E-01  0.9147870E-01  0.3571429E-03
   1      -95.363271
   2      -95.361004
   3       -6.080010
   4        4.755128
   5        5.731935
   6        5.731935
   7        7.208706
   8        7.208706
   9        7.649671
  10       12.121816
  11       12.377101
  12       12.377101
  13       13.289351
  14       13.717811
  15       15.469235
  16       15.469235
 
  0.9273183E-01  0.9273183E-01  0.9273183E-01  0.3571429E-03
   1      -95.363269
   2      -95.361005
   3       -6.077024
   4        4.730715
   5        5.723712
   6        5.723712
   7        7.217686
   8        7.217686
   9        7.660947
  10       12.126347