   8   8   1   0
  0.6236507E+02  0.4994108E-09  0.4994108E-09  0.2000394E-08  0.5000000E-15
  1.000000000000000E-004
  CAR 
 unknown system                          
     10.18619671    -26.53474976  301     -4.34441556      1.00000000
    -26.535  0.0000E+00  0.0000E+00
    -26.412  0.0000E+00  0.0000E+00
    -26.290  0.0000E+00  0.0000E+00
    -26.168  0.0000E+00  0.0000E+00
    -26.045  0.0000E+00  0.0000E+00
    -25.923  0.0000E+00  0.0000E+00
    -25.800  0.0000E+00  0.0000E+00
    -25.678  0.0000E+00  0.0000E+00
    -25.556  0.0000E+00  0.0000E+00
    -25.433  0.0000E+00  0.0000E+00
    -25.311  0.0000E+00  0.0000E+00
    -25.188  0.0000E+00  0.0000E+00
    -25.066  0.0000E+00  0.0000E+00
    -24.944  0.0000E+00  0.0000E+00
    -24.821  0.7268E+00  0.8896E-01
    -24.699  0.1620E+01  0.3471E+00
    -24.576  0.2161E+01  0.6116E+00
    -24.454  0.1915E+01  0.8460E+00
    -24.331  0.2086E+01  0.1198E+01
    -24.209  0.2131E+01  0.1600E+01
    -24.087  0.1800E+00  0.1625E+01
    -23.964  0.0000E+00  0.1802E+01
    -23.842  0.1080E+01  0.1934E+01
    -23.719  0.3079E-13  0.1934E+01
    -23.597  0.5401E+00  0.2000E+01
    -23.475  0.2170E+01  0.2332E+01
    -23.352  0.1648E+01  0.2665E+01
    -23.230  0.3232E+01  0.3255E+01
    -23.107  0.2876E-09  0.3256E+01
    -22.985  0.3244E+01  0.3653E+01
    -22.863  0.5399E+00  0.3851E+01
    -22.740  0.5401E+00  0.3917E+01
    -22.618  0.2378E+01  0.4407E+01
    -22.495  0.3614E-06  0.4446E+01
    -22.373  0.2620E+01  0.4833E+01
    -22.251  0.2975E+01  0.5339E+01
    -22.128  0.1588E+01  0.5732E+01
    -22.006  0.1622E+01  0.5934E+01
    -21.883  0.0000E+00  0.6000E+01
    -21.761  0.0000E+00  0.6000E+01
    -21.639  0.0000E+00  0.6000E+01
    -21.516  0.0000E+00  0.6000E+01
    -21.394  0.0000E+00  0.6000E+01
    -21.271  0.1503E+00  0.6018E+01
    -21.149  0.1080E+01  0.6198E+01
    -21.027  0.1291E+01  0.6356E+01
    -20.904  0.1080E+01  0.6529E+01
    -20.782  0.1080E+01  0.6661E+01
    -20.659  0.1609E+01  0.7057E+01
    -20.537  0.2698E+01  0.7388E+01
    -20.415  0.9722E+00  0.7507E+01
    -20.292  0.5806E+00  0.7658E+01
    -20.170  0.1369E+01  0.7837E+01
    -20.047  0.5403E+00  0.8000E+01
    -19.925  0.1350E+00  0.8149E+01
    -19.803  0.5367E+00  0.8214E+01
    -19.680  0.1073E+01  0.8346E+01
    -19.558  0.0000E+00  0.8347E+01
    -19.435  0.7078E-07  0.8347E+01
    -19.313  0.5401E+00  0.8479E+01
    -19.191  0.0000E+00  0.8612E+01
    -19.068  0.0000E+00  0.8612E+01
    -18.946  0.1619E+01  0.8810E+01
    -18.823  0.1080E+01  0.8942E+01
    -18.701  0.0000E+00  0.8942E+01
    -18.579  0.5402E+00  0.9008E+01
    -18.456  0.2161E+01  0.9339E+01
    -18.334  0.0000E+00  0.9339E+01
    -18.211  0.2509E-08  0.9339E+01
    -18.089  0.6810E+00  0.9554E+01
    -17.967  0.0000E+00  0.9603E+01
    -17.844  0.0000E+00  0.9603E+01
    -17.722  0.4263E-03  0.9603E+01
    -17.599  0.4421E+00  0.9790E+01
    -17.477  0.0000E+00  0.9802E+01
    -17.355  0.4684E+00  0.9859E+01
    -17.232  0.1080E+01  0.1000E+02
    -17.110  0.1080E+01  0.1013E+02
    -16.987  0.1620E+01  0.1033E+02
    -16.865  0.0000E+00  0.1046E+02
    -16.742  0.1058E+01  0.1059E+02
    -16.620  0.5192E+00  0.1079E+02
    -16.498  0.1079E+01  0.1099E+02
    -16.375  0.2161E+01  0.1126E+02
    -16.253  0.1230E+01  0.1141E+02
    -16.130  0.1080E+01  0.1165E+02
    -16.008  0.5374E+00  0.1185E+02
    -15.886  0.0000E+00  0.1185E+02
    -15.763  0.1620E+01  0.1205E+02
    -15.641  0.2150E-01  0.1205E+02
    -15.518  0.1082E+01  0.1228E+02
    -15.396  0.1061E+01  0.1254E+02
    -15.274  0.2732E+01  0.1288E+02
    -15.151  0.0000E+00  0.1301E+02
    -15.029  0.1079E+01  0.1314E+02
    -14.906  0.1152E+01  0.1328E+02
    -14.784  0.1146E+00  0.1349E+02
    -14.662  0.8908E-07  0.1354E+02
    -14.539  0.2832E-02  0.1367E+02
    -14.417  0.1080E+01  0.1400E+02
    -14.294  0.0000E+00  0.1400E+02
    -14.172  0.2103E+01  0.1426E+02
    -14.050  0.5402E+00  0.1441E+02
    -13.927  0.0000E+00  0.1448E+02
    -13.805  0.1626E+01  0.1468E+02
    -13.682  0.0000E+00  0.1481E+02
    -13.560  0.1620E+01  0.1501E+02
    -13.438  0.2698E+01  0.1534E+02
    -13.315  0.0000E+00  0.1540E+02
    -13.193  0.1080E+01  0.1554E+02
    -13.070  0.2160E+01  0.1587E+02
    -12.948  0.1080E+01  0.1600E+02
    -12.826  0.1316E+01  0.1616E+02
    -12.703  0.8583E-05  0.1626E+02
    -12.581  0.1144E+01  0.1654E+02
    -12.458  0.1057E+01  0.1672E+02
    -12.336  0.6752E+00  0.1694E+02
    -12.214  0.5401E+00  0.1701E+02
    -12.091  0.0000E+00  0.1714E+02
    -11.969  0.1445E-01  0.1714E+02
    -11.846  0.1480E+01  0.1739E+02
    -11.724  0.0000E+00  0.1747E+02
    -11.602  0.1080E+01  0.1760E+02
    -11.479  0.5321E+00  0.1767E+02
    -11.357  0.1080E+01  0.1780E+02
    -11.234  0.1095E+00  0.1782E+02
    -11.112  0.2622E+01  0.1821E+02
    -10.990  0.1135E+01  0.1862E+02
    -10.867  0.4041E+01  0.1924E+02
    -10.745  0.1167E+01  0.1942E+02
    -10.622  0.1109E+01  0.1974E+02
    -10.500  0.4947E+01  0.2047E+02
    -10.378  0.2160E+01  0.2079E+02
    -10.255  0.4974E+00  0.2085E+02
    -10.133  0.0000E+00  0.2106E+02
    -10.010  0.2152E+01  0.2132E+02
     -9.888  0.1591E+01  0.2152E+02
     -9.766  0.8763E+00  0.2163E+02
     -9.643  0.3235E+01  0.2231E+02
     -9.521  0.1183E-01  0.2232E+02
     -9.398  0.4861E+01  0.2298E+02
     -9.276  0.5401E+00  0.2304E+02
     -9.154  0.5401E+00  0.2311E+02
     -9.031  0.1745E+01  0.2339E+02
     -8.909  0.5401E+00  0.2364E+02
     -8.786  0.1215E+01  0.2379E+02
     -8.664  0.1078E+01  0.2392E+02
     -8.541  0.1190E+01  0.2406E+02
     -8.419  0.1116E+01  0.2425E+02
     -8.297  0.4716E+00  0.2444E+02
     -8.174  0.5377E+00  0.2451E+02
     -8.052  0.3526E+01  0.2496E+02
     -7.929  0.2808E+00  0.2522E+02
     -7.807  0.4352E+01  0.2579E+02
     -7.685  0.2389E+01  0.2631E+02
     -7.562  0.5402E+00  0.2661E+02
     -7.440  0.8300E-08  0.2674E+02
     -7.317  0.1904E+01  0.2704E+02
     -7.195  0.1260E+01  0.2729E+02
     -7.073  0.0000E+00  0.2800E+02
     -6.950  0.0000E+00  0.2800E+02
     -6.828  0.0000E+00  0.2800E+02
     -6.705  0.0000E+00  0.2800E+02
     -6.583  0.1350E+00  0.2802E+02
     -6.461  0.0000E+00  0.2802E+02
     -6.338  0.2802E+00  0.2805E+02
     -6.216  0.2220E+01  0.2835E+02
     -6.093  0.2661E+01  0.2933E+02
     -5.971  0.1522E+01  0.2972E+02
     -5.849  0.2163E+01  0.3020E+02
     -5.726  0.2641E+01  0.3069E+02
     -5.604  0.2680E+01  0.3109E+02
     -5.481  0.2160E+01  0.3162E+02
     -5.359  0.2804E+01  0.3229E+02
     -5.237  0.4423E+01  0.3302E+02
     -5.114  0.4980E+01  0.3401E+02
     -4.992  0.3249E+01  0.3473E+02
     -4.869  0.1755E+01  0.3501E+02
     -4.747  0.1232E-13  0.3501E+02
     -4.625  0.3739E+01  0.3547E+02
     -4.502  0.1098E+01  0.3561E+02
     -4.380  0.1579E+01  0.3593E+02
     -4.257  0.0000E+00  0.3607E+02
     -4.135  0.2161E+01  0.3633E+02
     -4.013  0.1620E+01  0.3673E+02
     -3.890  0.0000E+00  0.3673E+02
     -3.768  0.1081E+01  0.3686E+02
     -3.645  0.1080E+01  0.3712E+02
     -3.523  0.1080E+01  0.3726E+02
     -3.401  0.1083E+01  0.3739E+02
     -3.278  0.4338E-11  0.3745E+02
     -3.156  0.1139E+01  0.3759E+02
     -3.033  0.1350E+00  0.3774E+02
     -2.911  0.5401E+00  0.3780E+02
     -2.789  0.0000E+00  0.3780E+02
     -2.666  0.0000E+00  0.3780E+02
     -2.544  0.1524E-11  0.3780E+02
     -2.421  0.1080E+01  0.3793E+02
     -2.299  0.0000E+00  0.3793E+02
     -2.177  0.0000E+00  0.3793E+02
     -2.054  0.0000E+00  0.3793E+02
     -1.932  0.0000E+00  0.3793E+02
     -1.809  0.5401E+00  0.3800E+02
     -1.687  0.0000E+00  0.3800E+02
     -1.565  0.1527E-01  0.3800E+02
     -1.442  0.1080E+01  0.3820E+02
     -1.320  0.1080E+01  0.3833E+02
     -1.197  0.3398E-02  0.3833E+02
     -1.075  0.1080E+01  0.3866E+02
     -0.952  0.2666E+01  0.3899E+02
     -0.830  0.1619E+01  0.3919E+02
     -0.708  0.4787E-10  0.3919E+02
     -0.585  0.7202E+00  0.3928E+02
     -0.463  0.2161E+01  0.3965E+02
     -0.340  0.0000E+00  0.3965E+02
     -0.218  0.0000E+00  0.3965E+02
     -0.096  0.4732E+00  0.3971E+02
      0.027  0.1080E+01  0.3985E+02
      0.149  0.1620E+01  0.4005E+02
      0.272  0.5401E+00  0.4012E+02
      0.394  0.5612E+00  0.4020E+02
      0.516  0.4967E+00  0.4033E+02
      0.639  0.5400E+00  0.4053E+02
      0.761  0.3158E+01  0.4092E+02
      0.884  0.1620E+01  0.4112E+02
      1.006  0.1080E+01  0.4132E+02
      1.128  0.1108E+01  0.4147E+02
      1.251  0.1036E+01  0.4180E+02
      1.373  0.2360E+01  0.4235E+02
      1.496  0.2970E+01  0.4279E+02
      1.618  0.1902E+01  0.4339E+02
      1.740  0.2570E+01  0.4400E+02
      1.863  0.3573E+01  0.4449E+02
      1.985  0.2701E+01  0.4511E+02
      2.108  0.2705E+01  0.4557E+02
      2.230  0.2280E+01  0.4592E+02
      2.352  0.5003E+01  0.4691E+02
      2.475  0.1578E+01  0.4730E+02
      2.597  0.1996E+01  0.4768E+02
      2.720  0.4626E+01  0.4840E+02
      2.842  0.3842E+01  0.4911E+02
      2.964  0.3743E+01  0.4983E+02
      3.087  0.1135E+01  0.5030E+02
      3.209  0.5145E+01  0.5126E+02
      3.332  0.1323E+01  0.5178E+02
      3.454  0.4450E+01  0.5256E+02
      3.576  0.5416E+01  0.5354E+02
      3.699  0.3245E+01  0.5420E+02
      3.821  0.1715E+01  0.5467E+02
      3.944  0.5967E+01  0.5566E+02
      4.066  0.4147E+01  0.5662E+02
      4.188  0.4959E+01  0.5738E+02
      4.311  0.2441E+01  0.5813E+02
      4.433  0.4930E+01  0.5898E+02
      4.556  0.4587E+01  0.5967E+02
      4.678  0.5680E+01  0.6086E+02
      4.800  0.5898E+01  0.6214E+02
      4.923  0.7474E+01  0.6326E+02
      5.045  0.1205E+02  0.6526E+02
      5.168  0.5485E+01  0.6611E+02
      5.290  0.9381E+01  0.6740E+02
      5.412  0.6823E+01  0.6880E+02
      5.535  0.4870E+01  0.6984E+02
      5.657  0.7579E+01  0.7116E+02
      5.780  0.6382E+01  0.7247E+02
      5.902  0.6404E+01  0.7346E+02
      6.024  0.5096E+01  0.7476E+02
      6.147  0.5004E+01  0.7574E+02
      6.269  0.8789E+01  0.7699E+02
      6.392  0.5770E+01  0.7831E+02
      6.514  0.4601E+01  0.7942E+02
      6.637  0.5911E+01  0.8051E+02
      6.759  0.4560E+01  0.8168E+02
      6.881  0.8823E+01  0.8306E+02
      7.004  0.5320E+01  0.8389E+02
      7.126  0.5413E+01  0.8514E+02
      7.249  0.5416E+01  0.8615E+02
      7.371  0.6138E+01  0.8733E+02
      7.493  0.6768E+01  0.8860E+02
      7.616  0.1038E+02  0.9003E+02
      7.738  0.6487E+01  0.9147E+02
      7.861  0.5786E+01  0.9259E+02
      7.983  0.4160E+01  0.9358E+02
      8.105  0.1879E+01  0.9443E+02
      8.228  0.6615E+01  0.9540E+02
      8.350  0.2673E+01  0.9580E+02
      8.473  0.4690E-01  0.9587E+02
      8.595  0.5401E+00  0.9600E+02
      8.717  0.0000E+00  0.9600E+02
      8.840  0.0000E+00  0.9600E+02
      8.962  0.0000E+00  0.9600E+02
      9.085  0.0000E+00  0.9600E+02
      9.207  0.0000E+00  0.9600E+02
      9.329  0.0000E+00  0.9600E+02
      9.452  0.0000E+00  0.9600E+02
      9.574  0.0000E+00  0.9600E+02
      9.697  0.0000E+00  0.9600E+02
      9.819  0.0000E+00  0.9600E+02
      9.941  0.0000E+00  0.9600E+02
     10.064  0.0000E+00  0.9600E+02
     10.186  0.0000E+00  0.9600E+02
     10.18619671    -26.53474976  301     -4.34441556      1.00000000
    -26.535  0.0000E+00  0.0000E+00  0.0000E+00  0.0000E+00  0.0000E+00  0.0000E+00  0.0000E+00  0.0000E+00  0.0000E+00
    -26.412  0.0000E+00  0.0000E+00  0.0000E+00  0.0000E+00  0.0000E+00  0.0000E+00  0.0000E+00  0.0000E+00  0.0000E+00
    -26.290  0.0000E+00  0.0000E+00  0.0000E+00  0.0000E+00  0.0000E+00  0.0000E+00  0.0000E+00  0.0000E+00  0.0000E+00
    -26.168  0.0000E+00  0.0000E+00  0.0000E+00  0.0000E+00  0.0000E+00  0.0000E+00  0.0000E+00  0.0000E+00  0.0000E+00
    -26.045  0.0000E+00  0.0000E+00  0.0000E+00  0.0000E+00  0.0000E+00  0.0000E+00  0.0000E+00  0.0000E+00  0.0000E+00
    -25.923  0.0000E+00  0.0000E+00  0.0000E+00  0.0000E+00  0.0000E+00  0.0000E+00  0.0000E+00  0.0000E+00  0.0000E+00
    -25.800  0.0000E+00  0.0000E+00  0.0000E+00  0.0000E+00  0.0000E+00  0.0000E+00  0.0000E+00  0.0000E+00  0.0000E+00
    -25.678  0.0000E+00  0.0000E+00  0.0000E+00  0.0000E+00  0.0000E+00  0.0000E+00  0.0000E+00  0.0000E+00  0.0000E+00
    -25.556  0.0000E+00  0.0000E+00  0.0000E+00  0.0000E+00  0.0000E+00  0.0000E+00  0.0000E+00  0.0000E+00  0.0000E+00
    -25.433  0.0000E+00  0.0000E+00  0.0000E+00  0.0000E+00  0.0000E+00  0.0000E+00  0.0000E+00  0.0000E+00  0.0000E+00
    -25.311  0.0000E+00  0.0000E+00  0.0000E+00  0.0000E+00  0.0000E+00  0.0000E+00  0.0000E+00  0.0000E+00  0.0000E+00
    -25.188  0.0000E+00  0.0000E+00  0.0000E+00  0.0000E+00  0.0000E+00  0.0000E+00  0.0000E+00  0.0000E+00  0.0000E+00
    -25.066  0.0000E+00  0.0000E+00  0.0000E+00  0.0000E+00  0.0000E+00  0.0000E+00  0.0000E+00  0.0000E+00  0.0000E+00
    -24.944  0.0000E+00  0.0000E+00  0.0000E+00  0.0000E+00  0.0000E+00  0.0000E+00  0.0000E+00  0.0000E+00  0.0000E+00
    -24.821  0.5748E-01  0.6107E-05  0.1394E-22  0.1028E-02  0.0000E+00  0.0000E+00  0.0000E+00  0.0000E+00  0.0000E+00
    -24.699  0.1234E+00  0.1228E-03  0.9316E-22  0.3659E-02  0.0000E+00  0.0000E+00  0.0000E+00  0.0000E+00  0.0000E+00
    -24.576  0.1556E+00  0.3595E-03  0.3790E-21  0.7167E-02  0.0000E+00  0.0000E+00  0.0000E+00  0.0000E+00  0.0000E+00
    -24.454  0.1264E+00  0.5276E-03  0.1969E-20  0.8849E-02  0.0000E+00  0.0000E+00  0.0000E+00  0.0000E+00  0.0000E+00
    -24.331  0.1250E+00  0.1033E-02  0.9313E-22  0.1225E-01  0.0000E+00  0.0000E+00  0.0000E+00  0.0000E+00  0.0000E+00
    -24.209  0.1119E+00  0.1778E-02  0.1509E-22  0.1513E-01  0.0000E+00  0.0000E+00  0.0000E+00  0.0000E+00  0.0000E+00
    -24.087  0.7518E-02  0.2442E-03  0.7659E-23  0.1528E-02  0.0000E+00  0.0000E+00  0.0000E+00  0.0000E+00  0.0000E+00
    -23.964  0.0000E+00  0.0000E+00  0.0000E+00  0.0000E+00  0.0000E+00  0.0000E+00  0.0000E+00  0.0000E+00  0.0000E+00
    -23.842  0.4937E-01  0.2380E-02  0.1608E-24  0.8850E-02  0.0000E+00  0.0000E+00  0.0000E+00  0.0000E+00  0.0000E+00
    -23.719  0.2076E-14  0.5436E-16  0.5658E-39  0.2536E-15  0.0000E+00  0.0000E+00  0.0000E+00  0.0000E+00  0.0000E+00
    -23.597  0.3642E-01  0.9535E-03  0.9924E-26  0.4449E-02  0.0000E+00  0.0000E+00  0.0000E+00  0.0000E+00  0.0000E+00
    -23.475  0.3080E+00  0.1903E-03  0.2427E-20  0.2229E-02  0.0000E+00  0.0000E+00  0.0000E+00  0.0000E+00  0.0000E+00
    -23.352  0.1983E+00  0.4334E-02  0.4134E-24  0.1161E-02  0.0000E+00  0.0000E+00  0.0000E+00  0.0000E+00  0.0000E+00
    -23.230  0.3306E+00  0.9129E-02  0.1780E-21  0.1220E-01  0.0000E+00  0.0000E+00  0.0000E+00  0.0000E+00  0.0000E+00
    -23.107  0.2057E-10  0.2556E-11  0.6188E-33  0.6660E-12  0.0000E+00  0.0000E+00  0.0000E+00  0.0000E+00  0.0000E+00
    -22.985  0.3179E+00  0.7779E-02  0.9635E-23  0.2190E-01  0.0000E+00  0.0000E+00  0.0000E+00  0.0000E+00  0.0000E+00
    -22.863  0.3161E-01  0.3830E-02  0.5707E-25  0.4895E-02  0.0000E+00  0.0000E+00  0.0000E+00  0.0000E+00  0.0000E+00
    -22.740  0.3371E-01  0.6394E-02  0.3874E-25  0.2428E-02  0.0000E+00  0.0000E+00  0.0000E+00  0.0000E+00  0.0000E+00
    -22.618  0.5291E-01  0.3520E-01  0.2081E-23  0.1228E-01  0.0000E+00  0.0000E+00  0.0000E+00  0.0000E+00  0.0000E+00
    -22.495  0.1758E-07  0.5780E-08  0.5938E-31  0.2631E-08  0.0000E+00  0.0000E+00  0.0000E+00  0.0000E+00  0.0000E+00
    -22.373  0.9086E-01  0.4296E-01  0.6391E-23  0.1937E-01  0.0000E+00  0.0000E+00  0.0000E+00  0.0000E+00  0.0000E+00
    -22.251  0.2895E-01  0.7972E-01  0.2910E-24  0.6968E-02  0.0000E+00  0.0000E+00  0.0000E+00  0.0000E+00  0.0000E+00
    -22.128  0.3455E-02  0.4554E-01  0.1410E-23  0.8306E-03  0.0000E+00  0.0000E+00  0.0000E+00  0.0000E+00  0.0000E+00
    -22.006  0.3300E-02  0.4110E-01  0.1036E-21  0.8184E-03  0.0000E+00  0.0000E+00  0.0000E+00  0.0000E+00  0.0000E+00
    -21.883  0.0000E+00  0.0000E+00  0.0000E+00  0.0000E+00  0.0000E+00  0.0000E+00  0.0000E+00  0.0000E+00  0.0000E+00
    -21.761  0.0000E+00  0.0000E+00  0.0000E+00  0.0000E+00  0.0000E+00  0.0000E+00  0.0000E+00  0.0000E+00  0.0000E+00
    -21.639  0.0000E+00  0.0000E+00  0.0000E+00  0.0000E+00  0.0000E+00  0.0000E+00  0.0000E+00  0.0000E+00  0.0000E+00
    -21.516  0.0000E+00  0.0000E+00  0.0000E+00  0.0000E+00  0.0000E+00  0.0000E+00  0.0000E+00  0.0000E+00  0.0000E+00
    -21.394  0.0000E+00  0.0000E+00  0.0000E+00  0.0000E+00  0.0000E+00  0.0000E+00  0.0000E+00  0.0000E+00  0.0000E+00
    -21.271  0.3374E-04  0.8137E-02  0.8403E-26  0.3957E-06  0.0000E+00  0.0000E+00  0.0000E+00  0.0000E+00  0.0000E+00
    -21.149  0.1715E-02  0.6039E-01  0.4616E-27  0.2156E-04  0.0000E+00  0.0000E+00  0.0000E+00  0.0000E+00  0.0000E+00
    -21.027  0.3003E-02  0.7328E-01  0.7942E-24  0.8872E-04  0.0000E+00  0.0000E+00  0.0000E+00  0.0000E+00  0.0000E+00
    -20.904  0.3219E-02  0.6062E-01  0.5674E-25  0.2065E-03  0.0000E+00  0.0000E+00  0.0000E+00  0.0000E+00  0.0000E+00
    -20.782  0.2528E-02  0.6923E-01  0.3235E-26  0.4178E-04  0.0000E+00  0.0000E+00  0.0000E+00  0.0000E+00  0.0000E+00
    -20.659  0.9333E-03  0.1114E+00  0.1220E-22  0.1746E-04  0.0000E+00  0.0000E+00  0.0000E+00  0.0000E+00  0.0000E+00
    -20.537  0.3917E-02  0.1649E+00  0.1630E-23  0.4458E-03  0.0000E+00  0.0000E+00  0.0000E+00  0.0000E+00  0.0000E+00
    -20.415  0.9327E-03  0.5738E-01  0.1900E-25  0.1235E-03  0.0000E+00  0.0000E+00  0.0000E+00  0.0000E+00  0.0000E+00
    -20.292  0.5247E-02  0.3275E-01  0.1711E-23  0.1865E-03  0.0000E+00  0.0000E+00  0.0000E+00  0.0000E+00  0.0000E+00
    -20.170  0.1714E-02  0.7407E-01  0.6008E-24  0.2244E-03  0.0000E+00  0.0000E+00  0.0000E+00  0.0000E+00  0.0000E+00
    -20.047  0.5472E-03  0.2713E-01  0.5325E-24  0.1123E-03  0.0000E+00  0.0000E+00  0.0000E+00  0.0000E+00  0.0000E+00
    -19.925  0.4064E-24  0.6805E-02  0.2517E-24  0.9172E-24  0.0000E+00  0.0000E+00  0.0000E+00  0.0000E+00  0.0000E+00
    -19.803  0.6206E-01  0.1923E-23  0.4650E-26  0.5293E-02  0.0000E+00  0.0000E+00  0.0000E+00  0.0000E+00  0.0000E+00
    -19.680  0.1193E+00  0.3136E-02  0.1813E-24  0.1064E-01  0.0000E+00  0.0000E+00  0.0000E+00  0.0000E+00  0.0000E+00
    -19.558  0.0000E+00  0.0000E+00  0.0000E+00  0.0000E+00  0.0000E+00  0.0000E+00  0.0000E+00  0.0000E+00  0.0000E+00
    -19.435  0.7575E-08  0.3819E-15  0.8375E-31  0.9350E-09  0.0000E+00  0.0000E+00  0.0000E+00  0.0000E+00  0.0000E+00
    -19.313  0.5557E-01  0.4712E-02  0.2827E-25  0.5703E-02  0.0000E+00  0.0000E+00  0.0000E+00  0.0000E+00  0.0000E+00
    -19.191  0.0000E+00  0.0000E+00  0.0000E+00  0.0000E+00  0.0000E+00  0.0000E+00  0.0000E+00  0.0000E+00  0.0000E+00
    -19.068  0.0000E+00  0.0000E+00  0.0000E+00  0.0000E+00  0.0000E+00  0.0000E+00  0.0000E+00  0.0000E+00  0.0000E+00
    -18.946  0.1573E+00  0.9201E-02  0.1115E-23  0.2288E-01  0.0000E+00  0.0000E+00  0.0000E+00  0.0000E+00  0.0000E+00
    -18.823  0.1040E+00  0.2876E-02  0.4206E-23  0.1696E-01  0.0000E+00  0.0000E+00  0.0000E+00  0.0000E+00  0.0000E+00
    -18.701  0.0000E+00  0.0000E+00  0.0000E+00  0.0000E+00  0.0000E+00  0.0000E+00  0.0000E+00  0.0000E+00  0.0000E+00
    -18.579  0.5083E-01  0.7242E-07  0.4170E-25  0.9982E-02  0.0000E+00  0.0000E+00  0.0000E+00  0.0000E+00  0.0000E+00
    -18.456  0.1939E+00  0.1243E-01  0.8685E-20  0.3531E-01  0.0000E+00  0.0000E+00  0.0000E+00  0.0000E+00  0.0000E+00
    -18.334  0.0000E+00  0.0000E+00  0.0000E+00  0.0000E+00  0.0000E+00  0.0000E+00  0.0000E+00  0.0000E+00  0.0000E+00
    -18.211  0.2073E-09  0.2386E-10  0.4946E-33  0.3977E-10  0.0000E+00  0.0000E+00  0.0000E+00  0.0000E+00  0.0000E+00
    -18.089  0.5592E-01  0.1034E-01  0.5557E-24  0.1040E-01  0.0000E+00  0.0000E+00  0.0000E+00  0.0000E+00  0.0000E+00
    -17.967  0.0000E+00  0.0000E+00  0.0000E+00  0.0000E+00  0.0000E+00  0.0000E+00  0.0000E+00  0.0000E+00  0.0000E+00
    -17.844  0.0000E+00  0.0000E+00  0.0000E+00  0.0000E+00  0.0000E+00  0.0000E+00  0.0000E+00  0.0000E+00  0.0000E+00
    -17.722  0.3148E-04  0.7679E-05  0.2462E-28  0.6036E-05  0.0000E+00  0.0000E+00  0.0000E+00  0.0000E+00  0.0000E+00
    -17.599  0.3492E-01  0.8254E-02  0.1707E-25  0.7817E-02  0.0000E+00  0.0000E+00  0.0000E+00  0.0000E+00  0.0000E+00
    -17.477  0.0000E+00  0.0000E+00  0.0000E+00  0.0000E+00  0.0000E+00  0.0000E+00  0.0000E+00  0.0000E+00  0.0000E+00
    -17.355  0.4097E-01  0.1147E-23  0.5531E-26  0.1019E-01  0.0000E+00  0.0000E+00  0.0000E+00  0.0000E+00  0.0000E+00
    -17.232  0.9238E-01  0.1996E-02  0.4878E-22  0.2431E-01  0.0000E+00  0.0000E+00  0.0000E+00  0.0000E+00  0.0000E+00
    -17.110  0.7149E-01  0.2858E-01  0.5734E-25  0.1482E-01  0.0000E+00  0.0000E+00  0.0000E+00  0.0000E+00  0.0000E+00
    -16.987  0.1324E+00  0.6405E-02  0.4254E-24  0.3946E-01  0.0000E+00  0.0000E+00  0.0000E+00  0.0000E+00  0.0000E+00
    -16.865  0.0000E+00  0.0000E+00  0.0000E+00  0.0000E+00  0.0000E+00  0.0000E+00  0.0000E+00  0.0000E+00  0.0000E+00
    -16.742  0.8022E-01  0.1022E-01  0.3786E-24  0.3032E-01  0.0000E+00  0.0000E+00  0.0000E+00  0.0000E+00  0.0000E+00
    -16.620  0.3533E-01  0.1281E-01  0.5401E-25  0.1053E-01  0.0000E+00  0.0000E+00  0.0000E+00  0.0000E+00  0.0000E+00
    -16.498  0.8270E-01  0.2819E-02  0.6992E-24  0.2693E-01  0.0000E+00  0.0000E+00  0.0000E+00  0.0000E+00  0.0000E+00
    -16.375  0.1460E+00  0.3143E-01  0.9056E-24  0.6526E-01  0.0000E+00  0.0000E+00  0.0000E+00  0.0000E+00  0.0000E+00
    -16.253  0.7873E-01  0.1913E-01  0.2062E-23  0.3152E-01  0.0000E+00  0.0000E+00  0.0000E+00  0.0000E+00  0.0000E+00
    -16.130  0.6337E-01  0.2388E-01  0.1765E-24  0.2592E-01  0.0000E+00  0.0000E+00  0.0000E+00  0.0000E+00  0.0000E+00
    -16.008  0.2155E-01  0.2448E-01  0.2723E-25  0.1231E-01  0.0000E+00  0.0000E+00  0.0000E+00  0.0000E+00  0.0000E+00
    -15.886  0.0000E+00  0.0000E+00  0.0000E+00  0.0000E+00  0.0000E+00  0.0000E+00  0.0000E+00  0.0000E+00  0.0000E+00
    -15.763  0.1045E+00  0.3922E-01  0.2543E-23  0.2864E-01  0.0000E+00  0.0000E+00  0.0000E+00  0.0000E+00  0.0000E+00
    -15.641  0.8694E-03  0.1210E-02  0.2551E-25  0.1573E-03  0.0000E+00  0.0000E+00  0.0000E+00  0.0000E+00  0.0000E+00
    -15.518  0.2246E-01  0.9097E-01  0.1044E-23  0.3810E-02  0.0000E+00  0.0000E+00  0.0000E+00  0.0000E+00  0.0000E+00
    -15.396  0.7584E-02  0.1068E+00  0.2093E-25  0.2858E-02  0.0000E+00  0.0000E+00  0.0000E+00  0.0000E+00  0.0000E+00
    -15.274  0.6235E-01  0.2254E+00  0.2949E-23  0.1165E-01  0.0000E+00  0.0000E+00  0.0000E+00  0.0000E+00  0.0000E+00
    -15.151  0.0000E+00  0.0000E+00  0.0000E+00  0.0000E+00  0.0000E+00  0.0000E+00  0.0000E+00  0.0000E+00  0.0000E+00
    -15.029  0.4888E-02  0.1105E+00  0.5735E-24  0.2753E-02  0.0000E+00  0.0000E+00  0.0000E+00  0.0000E+00  0.0000E+00
    -14.906  0.7726E-02  0.1150E+00  0.1559E-23  0.3064E-02  0.0000E+00  0.0000E+00  0.0000E+00  0.0000E+00  0.0000E+00
    -14.784  0.1647E-03  0.1119E-01  0.6183E-24  0.1812E-03  0.0000E+00  0.0000E+00  0.0000E+00  0.0000E+00  0.0000E+00
    -14.662  0.3421E-09  0.9173E-08  0.1225E-31  0.1997E-09  0.0000E+00  0.0000E+00  0.0000E+00  0.0000E+00  0.0000E+00
    -14.539  0.1777E-04  0.2520E-03  0.2003E-26  0.2221E-04  0.0000E+00  0.0000E+00  0.0000E+00  0.0000E+00  0.0000E+00
    -14.417  0.1446E-01  0.1025E+00  0.1819E-23  0.3569E-02  0.0000E+00  0.0000E+00  0.0000E+00  0.0000E+00  0.0000E+00
    -14.294  0.0000E+00  0.0000E+00  0.0000E+00  0.0000E+00  0.0000E+00  0.0000E+00  0.0000E+00  0.0000E+00  0.0000E+00
    -14.172  0.1450E-01  0.1908E+00  0.1516E-20  0.2432E-01  0.0000E+00  0.0000E+00  0.0000E+00  0.0000E+00  0.0000E+00
    -14.050  0.2022E-06  0.6085E-01  0.6046E-25  0.9983E-06  0.0000E+00  0.0000E+00  0.0000E+00  0.0000E+00  0.0000E+00
    -13.927  0.0000E+00  0.0000E+00  0.0000E+00  0.0000E+00  0.0000E+00  0.0000E+00  0.0000E+00  0.0000E+00  0.0000E+00
    -13.805  0.1386E-01  0.9825E-01  0.4337E-24  0.6207E-01  0.0000E+00  0.0000E+00  0.0000E+00  0.0000E+00  0.0000E+00
    -13.682  0.0000E+00  0.0000E+00  0.0000E+00  0.0000E+00  0.0000E+00  0.0000E+00  0.0000E+00  0.0000E+00  0.0000E+00
    -13.560  0.1360E-01  0.9788E-01  0.2611E-21  0.5855E-01  0.0000E+00  0.0000E+00  0.0000E+00  0.0000E+00  0.0000E+00
    -13.438  0.2641E-01  0.1531E+00  0.2675E-23  0.1113E+00  0.0000E+00  0.0000E+00  0.0000E+00  0.0000E+00  0.0000E+00
    -13.315  0.0000E+00  0.0000E+00  0.0000E+00  0.0000E+00  0.0000E+00  0.0000E+00  0.0000E+00  0.0000E+00  0.0000E+00
    -13.193  0.1596E-02  0.1032E+00  0.1130E-24  0.2731E-02  0.0000E+00  0.0000E+00  0.0000E+00  0.0000E+00  0.0000E+00
    -13.070  0.2405E-01  0.1062E+00  0.1525E-23  0.1114E+00  0.0000E+00  0.0000E+00  0.0000E+00  0.0000E+00  0.0000E+00
    -12.948  0.1756E-01  0.1059E-01  0.1581E-23  0.1106E+00  0.0000E+00  0.0000E+00  0.0000E+00  0.0000E+00  0.0000E+00
    -12.826  0.3839E-02  0.1218E+00  0.3648E-24  0.1475E-02  0.0000E+00  0.0000E+00  0.0000E+00  0.0000E+00  0.0000E+00
    -12.703  0.1110E-06  0.8666E-07  0.9691E-28  0.8171E-06  0.0000E+00  0.0000E+00  0.0000E+00  0.0000E+00  0.0000E+00
    -12.581  0.1578E-02  0.1115E+00  0.2250E-25  0.4447E-03  0.0000E+00  0.0000E+00  0.0000E+00  0.0000E+00  0.0000E+00
    -12.458  0.1027E-01  0.5058E-01  0.5444E-25  0.6551E-01  0.0000E+00  0.0000E+00  0.0000E+00  0.0000E+00  0.0000E+00
    -12.336  0.1126E-17  0.6707E-01  0.1084E-23  0.1367E-16  0.0000E+00  0.0000E+00  0.0000E+00  0.0000E+00  0.0000E+00
    -12.214  0.4057E-02  0.7986E-02  0.2647E-24  0.4924E-01  0.0000E+00  0.0000E+00  0.0000E+00  0.0000E+00  0.0000E+00
    -12.091  0.0000E+00  0.0000E+00  0.0000E+00  0.0000E+00  0.0000E+00  0.0000E+00  0.0000E+00  0.0000E+00  0.0000E+00
    -11.969  0.1346E-03  0.1053E-24  0.1588E-28  0.2394E-02  0.0000E+00  0.0000E+00  0.0000E+00  0.0000E+00  0.0000E+00
    -11.846  0.1171E-01  0.7353E-02  0.7196E-22  0.2137E+00  0.0000E+00  0.0000E+00  0.0000E+00  0.0000E+00  0.0000E+00
    -11.724  0.0000E+00  0.0000E+00  0.0000E+00  0.0000E+00  0.0000E+00  0.0000E+00  0.0000E+00  0.0000E+00  0.0000E+00
    -11.602  0.6810E-02  0.5933E-02  0.2856E-25  0.1609E+00  0.0000E+00  0.0000E+00  0.0000E+00  0.0000E+00  0.0000E+00
    -11.479  0.1687E-02  0.8799E-02  0.9485E-25  0.5100E-01  0.0000E+00  0.0000E+00  0.0000E+00  0.0000E+00  0.0000E+00
    -11.357  0.4439E-02  0.9607E-02  0.2364E-23  0.1488E+00  0.0000E+00  0.0000E+00  0.0000E+00  0.0000E+00  0.0000E+00
    -11.234  0.1940E-25  0.2044E-23  0.6983E-02  0.3617E-24  0.0000E+00  0.0000E+00  0.0000E+00  0.0000E+00  0.0000E+00
    -11.112  0.2271E-01  0.1475E-01  0.4358E-01  0.1758E+00  0.0000E+00  0.0000E+00  0.0000E+00  0.0000E+00  0.0000E+00
    -10.990  0.1633E-01  0.1195E-01  0.1027E-02  0.6265E-01  0.0000E+00  0.0000E+00  0.0000E+00  0.0000E+00  0.0000E+00
    -10.867  0.1047E-01  0.4355E-01  0.9426E-01  0.1875E+00  0.0000E+00  0.0000E+00  0.0000E+00  0.0000E+00  0.0000E+00
    -10.745  0.4092E-23  0.2422E-23  0.6922E-01  0.1092E-22  0.0000E+00  0.0000E+00  0.0000E+00  0.0000E+00  0.0000E+00
    -10.622  0.6572E-03  0.7672E-02  0.3607E-01  0.5918E-01  0.0000E+00  0.0000E+00  0.0000E+00  0.0000E+00  0.0000E+00
    -10.500  0.3867E-01  0.2170E-01  0.3626E-01  0.3755E+00  0.0000E+00  0.0000E+00  0.0000E+00  0.0000E+00  0.0000E+00
    -10.378  0.7770E-24  0.5997E-23  0.9356E-01  0.2695E-23  0.0000E+00  0.0000E+00  0.0000E+00  0.0000E+00  0.0000E+00
    -10.255  0.1152E-02  0.3274E-02  0.4647E-02  0.5015E-01  0.0000E+00  0.0000E+00  0.0000E+00  0.0000E+00  0.0000E+00
    -10.133  0.0000E+00  0.0000E+00  0.0000E+00  0.0000E+00  0.0000E+00  0.0000E+00  0.0000E+00  0.0000E+00  0.0000E+00
    -10.010  0.6540E-02  0.4656E-02  0.3939E-01  0.1295E+00  0.0000E+00  0.0000E+00  0.0000E+00  0.0000E+00  0.0000E+00
     -9.888  0.1486E-01  0.1319E-02  0.7600E-25  0.1902E+00  0.0000E+00  0.0000E+00  0.0000E+00  0.0000E+00  0.0000E+00
     -9.766  0.1211E-20  0.3709E-21  0.7904E-01  0.1747E-20  0.0000E+00  0.0000E+00  0.0000E+00  0.0000E+00  0.0000E+00
     -9.643  0.1669E-02  0.1279E-02  0.2988E+00  0.7254E-01  0.0000E+00  0.0000E+00  0.0000E+00  0.0000E+00  0.0000E+00
     -9.521  0.3081E-26  0.1793E-25  0.8259E-03  0.3188E-25  0.0000E+00  0.0000E+00  0.0000E+00  0.0000E+00  0.0000E+00
     -9.398  0.5085E-02  0.6842E-03  0.3913E+00  0.1478E+00  0.0000E+00  0.0000E+00  0.0000E+00  0.0000E+00  0.0000E+00
     -9.276  0.2888E-02  0.9483E-24  0.4200E-27  0.7438E-01  0.0000E+00  0.0000E+00  0.0000E+00  0.0000E+00  0.0000E+00
     -9.154  0.1801E-24  0.1519E-24  0.3700E-01  0.3309E-24  0.0000E+00  0.0000E+00  0.0000E+00  0.0000E+00  0.0000E+00
     -9.031  0.7375E-03  0.1331E-03  0.1087E+00  0.8048E-01  0.0000E+00  0.0000E+00  0.0000E+00  0.0000E+00  0.0000E+00
     -8.909  0.8448E-03  0.1503E-23  0.4700E-27  0.8212E-01  0.0000E+00  0.0000E+00  0.0000E+00  0.0000E+00  0.0000E+00
     -8.786  0.1206E-05  0.1080E-23  0.3528E-01  0.2129E-01  0.0000E+00  0.0000E+00  0.0000E+00  0.0000E+00  0.0000E+00
     -8.664  0.2052E-23  0.2379E-23  0.6322E-01  0.1712E-22  0.0000E+00  0.0000E+00  0.0000E+00  0.0000E+00  0.0000E+00
     -8.541  0.6625E-25  0.2341E-23  0.1053E+00  0.8377E-25  0.0000E+00  0.0000E+00  0.0000E+00  0.0000E+00  0.0000E+00
     -8.419  0.2754E-24  0.1220E-23  0.2527E-01  0.1962E-24  0.0000E+00  0.0000E+00  0.0000E+00  0.0000E+00  0.0000E+00
     -8.297  0.4629E-25  0.5743E-24  0.2278E-01  0.1467E-24  0.0000E+00  0.0000E+00  0.0000E+00  0.0000E+00  0.0000E+00
     -8.174  0.2345E-05  0.1201E-22  0.3058E-01  0.3714E-06  0.0000E+00  0.0000E+00  0.0000E+00  0.0000E+00  0.0000E+00
     -8.052  0.1939E-01  0.1171E-04  0.9298E-01  0.3128E-02  0.0000E+00  0.0000E+00  0.0000E+00  0.0000E+00  0.0000E+00
     -7.929  0.8950E-02  0.1511E-14  0.4005E-15  0.1903E-02  0.0000E+00  0.0000E+00  0.0000E+00  0.0000E+00  0.0000E+00
     -7.807  0.3352E-01  0.6978E-03  0.5481E-01  0.8350E-02  0.0000E+00  0.0000E+00  0.0000E+00  0.0000E+00  0.0000E+00
     -7.685  0.2175E-01  0.1135E-02  0.4766E-02  0.7844E-02  0.0000E+00  0.0000E+00  0.0000E+00  0.0000E+00  0.0000E+00
     -7.562  0.1304E-05  0.1064E-06  0.5120E-26  0.6943E-06  0.0000E+00  0.0000E+00  0.0000E+00  0.0000E+00  0.0000E+00
     -7.440  0.1668E-09  0.2870E-16  0.9106E-34  0.1119E-09  0.0000E+00  0.0000E+00  0.0000E+00  0.0000E+00  0.0000E+00