    4    4    1    1
  0.7458192E+02  0.3791454E-09  0.3791454E-09  0.2396257E-08  0.5000000E-15
  1.000000000000000E-004
  CAR 
 CdCl                                    
   38  180   32
 
  0.0000000E+00  0.0000000E+00  0.0000000E+00  0.5555556E-02
   1      -18.731659
   2      -18.709312
   3      -12.046060
   4      -12.046058
   5      -11.951295
   6      -11.813117
   7      -11.813001
   8      -11.518896
   9      -11.457340
  10      -11.457320
  11      -11.389763
  12      -11.389658
  13       -9.321126
  14       -7.353578
  15       -5.685552
  16       -5.685350
  17       -5.636800
  18       -5.636588
  19       -5.400353
  20       -1.653349
  21        0.635968
  22        2.275190
  23        2.281605
  24        2.906430
  25        3.625803
  26        3.876347
  27        3.877130
  28        4.396439
  29        4.630052
  30        5.182364
  31        5.183581
  32        5.847001
 
 -0.5644068E-02  0.1130508E-01  0.0000000E+00  0.5555556E-02
   1      -18.731386
   2      -18.709064
   3      -12.045982
   4      -12.045964
   5      -11.950935
   6      -11.813192
   7      -11.812794
   8      -11.518783
   9      -11.457788
  10      -11.457670
  11      -11.389610
  12      -11.389427
  13       -9.320057
  14       -7.353455
  15       -5.688057
  16       -5.685990
  17       -5.639300
  18       -5.637183
  19       -5.399267
  20       -1.650431
  21        0.639338
  22        2.276272
  23        2.282528
  24        2.907492
  25        3.626081
  26        3.863936
  27        3.873769
  28        4.399174
  29        4.629852
  30        5.180024
  31        5.185448
  32        5.847786
 
 -0.1128814E-01  0.2261017E-01  0.0000000E+00  0.5555556E-02
   1      -18.730568
   2      -18.708322
   3      -12.045752
   4      -12.045680
   5      -11.949859
   6      -11.813646
   7      -11.811943
   8      -11.518456
   9      -11.459118
  10      -11.458699
  11      -11.389341
  12      -11.388566
  13       -9.316857
  14       -7.353089
  15       -5.695949
  16       -5.687568
  17       -5.647116
  18       -5.638555
  19       -5.396064
  20       -1.641716
  21        0.649415
  22        2.279510
  23        2.285287
  24        2.910666
  25        3.626394
  26        3.826732
  27        3.865295
  28        4.406760
  29        4.629305
  30        5.170672
  31        5.193363
  32        5.850168
 
 -0.1693220E-01  0.3391525E-01  0.0000000E+00  0.5555556E-02
   1      -18.729209
   2      -18.707088
   3      -12.045364
   4      -12.045210
   5      -11.948076
   6      -11.814403
   7      -11.810519
   8      -11.517950
   9      -11.461260
  10      -11.460380
  11      -11.388899
  12      -11.387189
  13       -9.311538
  14       -7.352506
  15       -5.708861
  16       -5.690589
  17       -5.659508
  18       -5.640952
  19       -5.390865
  20       -1.627326
  21        0.666109
  22        2.284875
  23        2.289855
  24        2.915917
  25        3.624053
  26        3.771032
  27        3.850848
  28        4.417840
  29        4.628577
  30        5.155699
  31        5.205902
  32        5.854174
 
 -0.2257627E-01  0.4522034E-01  0.0000000E+00  0.5555556E-02
   1      -18.727312
   2      -18.705365
   3      -12.044809
   4      -12.044558
   5      -11.945604
   6      -11.815447
   7      -11.808525
   8      -11.517329
   9      -11.464123
  10      -11.462654
  11      -11.388264
  12      -11.385389
  13       -9.304120
  14       -7.351722
  15       -5.726502
  16       -5.696673
  17       -5.674596
  18       -5.644455
  19       -5.383833
  20       -1.607453
  21        0.689267
  22        2.292318
  23        2.296184
  24        2.923178
  25        3.606657
  26        3.712934
  27        3.829990
  28        4.431150
  29        4.627931
  30        5.135984
  31        5.222195
  32        5.859803
 
 -0.2822034E-01  0.5652542E-01  0.0000000E+00  0.5555556E-02
   1      -18.724886
   2      -18.703159
   3      -12.044079
   4      -12.043728
   5      -11.942463
   6      -11.816763
   7      -11.805966
   8      -11.516694
   9      -11.467606
  10      -11.465425
  11      -11.387423
  12      -11.383257
  13       -9.294633
  14       -7.350775
  15       -5.748575
  16       -5.711044
  17       -5.686850
  18       -5.649114
  19       -5.375110
  20       -1.582357
  21        0.718683
  22        2.301762
  23        2.304197
  24        2.932345
  25        3.544446
  26        3.685745
  27        3.802261
  28        4.445905
  29        4.627700
  30        5.112529
  31        5.241373
  32        5.867131
 
 -0.3386441E-01  0.6783051E-01  0.0000000E+00  0.5555556E-02
   1      -18.721937
   2      -18.700477
   3      -12.043164
   4      -12.042727
   5      -11.938681
   6      -11.818331
   7      -11.802844
   8      -11.516197
   9      -11.471615
  10      -11.468547
  11      -11.386360
  12      -11.380878
  13       -9.283112
  14       -7.349711
  15       -5.774729
  16       -5.735328
  17       -5.694334
  18       -5.654936
  19       -5.364805
  20       -1.552357
  21        0.754099
  22        2.313097
  23        2.313775
  24        2.943259
  25        3.444980
  26        3.685045
  27        3.767325
  28        4.461756
  29        4.628226
  30        5.086294
  31        5.262679
  32        5.876275
 
 -0.3950847E-01  0.7913559E-01  0.0000000E+00  0.5555556E-02
   1      -18.718475
   2      -18.697328
   3      -12.042053
   4      -12.041563
   5      -11.934287
   6      -11.820131
   7      -11.799163
   8      -11.516057
   9      -11.476066
  10      -11.471802
  11      -11.385062
  12      -11.378323
  13       -9.269603
  14       -7.348584
  15       -5.804593
  16       -5.765554
  17       -5.700733
  18       -5.661936
  19       -5.352987
  20       -1.517817
  21        0.795215
  22        2.324722
  23        2.326173
  24        2.955679
  25        3.328603
  26        3.693226
  27        3.725127
  28        4.478608
  29        4.629749
  30        5.058111
  31        5.285408
  32        5.887490
 
 -0.4515254E-01  0.9044068E-01  0.0000000E+00  0.5555556E-02
   1      -18.714513
   2      -18.693722
   3      -12.040736
   4      -12.040243
   5      -11.929315
   6      -11.822136
   7      -11.794928
   8      -11.516571
   9      -11.480888
  10      -11.474890
  11      -11.383520
  12      -11.375650
  13       -9.254156
  14       -7.347469
  15       -5.837742
  16       -5.799993
  17       -5.707459
  18       -5.670120
  19       -5.339707
  20       -1.479137
  21        0.841690
  22        2.336729
  23        2.340760
  24        2.969235
  25        3.202598
  26        3.676068
  27        3.705443
  28        4.496489
  29        4.632261
  30        5.028734
  31        5.309016
  32        5.900176
 
 -0.5079661E-01  0.1017458E+00  0.0000000E+00  0.5555556E-02
   1      -18.710065
   2      -18.689670
   3      -12.039206
   4      -12.038778
   5      -11.923799
   6      -11.824323
   7      -11.790145
   8      -11.518089
   9      -11.486019
  10      -11.477453
  11      -11.381725
  12      -11.372900
  13       -9.236826
  14       -7.346453
  15       -5.873729
  16       -5.837958
  17       -5.714913
  18       -5.679500
  19       -5.324985
  20       -1.436749
  21        0.893150
  22        2.349219
  23        2.356550
  24        2.983345
  25        3.070630
  26        3.621173
  27        3.720356
  28        4.515469
  29        4.635296
  30        4.998956
  31        5.332968
  32        5.915324
 
 -0.5644068E-01  0.1130508E+00  0.0000000E+00  0.5555556E-02
   1      -18.705146
   2      -18.685186
   3      -12.037455
   4      -12.037177
   5      -11.917777
   6      -11.826666
   7      -11.784824
   8      -11.520915
   9      -11.491406
  10      -11.479178
  11      -11.379676
  12      -11.370106
  13       -9.217679
  14       -7.345633
  15       -5.912072
  16       -5.878996
  17       -5.723239
  18       -5.690088
  19       -5.308850
  20       -1.391100
  21        0.949193
  22        2.361022
  23        2.373085
  24        2.935817
  25        2.997076
  26        3.562267
  27        3.737458
  28        4.535619
  29        4.637653
  30        4.969961
  31        5.356619
  32        5.932854
 
 -0.6208475E-01  0.1243559E+00  0.0000000E+00  0.5555556E-02
   1      -18.699773
   2      -18.680285
   3      -12.035482
   4      -12.035447
   5      -11.911287
   6      -11.829136
   7      -11.778976
   8      -11.525165
   9      -11.497004
  10      -11.479933
  11      -11.377370
  12      -11.367288
  13       -9.196779
  14       -7.345116
  15       -5.952297
  16       -5.922701
  17       -5.732522
  18       -5.701899
  19       -5.291315
  20       -1.342644
  21        1.009399
  22        2.369378
  23        2.389695
  24        2.802371
  25        3.008884
  26        3.502238
  27        3.756501
  28        4.557005
  29        4.637070
  30        4.943790
  31        5.379414
  32        5.952959
 
 -0.6772881E-01  0.1356610E+00  0.0000000E+00  0.5555556E-02
   1      -18.693964
   2      -18.674981
   3      -12.033606
   4      -12.033274
   5      -11.904366
   6      -11.831707
   7      -11.772612
   8      -11.530732
   9      -11.502770
  10      -11.479807
  11      -11.374816
  12      -11.364462
  13       -9.174197
  14       -7.345035
  15       -5.993875
  16       -5.968703
  17       -5.742808
  18       -5.714953
  19       -5.272406
  20       -1.291844
  21        1.073325
  22        2.366609
  23        2.405366
  24        2.679099
  25        3.016313
  26        3.445396
  27        3.777329
  28        4.579686
  29        4.630094
  30        4.923632
  31        5.400725
  32        5.976080
 
 -0.7337288E-01  0.1469661E+00  0.0000000E+00  0.5555556E-02
   1      -18.687740
   2      -18.669291
   3      -12.031654
   4      -12.030842
   5      -11.897056
   6      -11.834355
   7      -11.765751
   8      -11.537381
   9      -11.508662
  10      -11.479009
  11      -11.372026
  12      -11.361636
  13       -9.150010
  14       -7.345529
  15       -6.036293
  16       -6.016652
  17       -5.754129
  18       -5.729271
  19       -5.252147
  20       -1.239164
  21        1.140516
  22        2.332095
  23        2.418547
  24        2.587543
  25        3.015898
  26        3.397659
  27        3.799831
  28        4.603700
  29        4.612885
  30        4.913194
  31        5.419597
  32        6.002067
 
 -0.7901695E-01  0.1582712E+00  0.0000000E+00  0.5555556E-02
   1      -18.681122
   2      -18.663236
   3      -12.029602
   4      -12.028184
   5      -11.889396
   6      -11.837051
   7      -11.758411
   8      -11.544863
   9      -11.514639
  10      -11.477761
  11      -11.369015
  12      -11.358813
  13       -9.124301
  14       -7.346757
  15       -6.079063
  16       -6.066162
  17       -5.766516
  18       -5.744868
  19       -5.230583
  20       -1.185071
  21        1.210500
  22        2.244411
  23        2.426882
  24        2.549898
  25        3.004488
  26        3.365441
  27        3.823919
  28        4.583201
  29        4.629131
  30        4.914774
  31        5.435585
  32        6.032024
 
 -0.8466102E-01  0.1695763E+00  0.0000000E+00  0.5555556E-02
   1      -18.674133
   2      -18.656835
   3      -12.027457
   4      -12.025306
   5      -11.881426
   6      -11.839774
   7      -11.750620
   8      -11.552970
   9      -11.520660
  10      -11.476241
  11      -11.365811
  12      -11.355993
  13       -9.097154
  14       -7.348899
  15       -6.121671
  16       -6.116886
  17       -5.779979
  18       -5.761772
  19       -5.207752
  20       -1.130035
  21        1.282793
  22        2.120871
  23        2.426936
  24        2.549497
  25        2.982763
  26        3.352337
  27        3.849517
  28        4.541796
  29        4.655978
  30        4.927978
  31        5.447762
  32        6.063776
 
 -0.9030508E-01  0.1808814E+00  0.0000000E+00  0.5555556E-02
   1      -18.666798
   2      -18.650106
   3      -12.025225
   4      -12.022214
   5      -11.873189
   6      -11.842498
   7      -11.742406
   8      -11.561534
   9      -11.526677
  10      -11.474577
  11      -11.362443
  12      -11.353172
  13       -9.068657
  14       -7.352133
  15       -6.168474
  16       -6.163610
  17       -5.794535
  18       -5.779997
  19       -5.183690
  20       -1.074530
  21        1.356890
  22        1.983820
  23        2.414312
  24        2.564566
  25        2.957376
  26        3.356847
  27        3.876563
  28        4.491310
  29        4.684312
  30        4.950762
  31        5.455587
  32        6.101410
 
 -0.9594915E-01  0.1921864E+00  0.0000000E+00  0.5555556E-02
   1      -18.659140
   2      -18.643074
   3      -12.022910
   4      -12.018919
   5      -11.864725
   6      -11.845202
   7      -11.733807
   8      -11.570427
   9      -11.532639
  10      -11.472862
  11      -11.358949
  12      -11.350344
  13       -9.038908
  14       -7.356642
  15       -6.220561
  16       -6.204404
  17       -5.810196
  18       -5.799562
  19       -5.158457
  20       -1.019040
  21        1.432264
  22        1.842345
  23        2.384812
  24        2.586531
  25        2.937522
  26        3.374617
  27        3.905006
  28        4.434706
  29        4.714171
  30        4.980941
  31        5.458464
  32        6.135281
 
 -0.1015932E+00  0.2034915E+00  0.0000000E+00  0.5555556E-02
   1      -18.651190
   2      -18.635761
   3      -12.020515
   4      -12.015433
   5      -11.856080
   6      -11.847867
   7      -11.724869
   8      -11.579549
   9      -11.538488
  10      -11.471157
  11      -11.355373
  12      -11.347503
  13       -9.008013
  14       -7.362633
  15       -6.272830
  16       -6.243598
  17       -5.826980
  18       -5.820496
  19       -5.132110
  20       -0.964078
  21        1.508338
  22        1.700008
  23        2.336588
  24        2.612308
  25        2.929629
  26        3.401595
  27        3.934808
  28        4.374591
  29        4.745583
  30        5.016842
  31        5.456114
  32        6.173346
 
 -0.1072373E+00  0.2147966E+00  0.0000000E+00  0.5555556E-02
   1      -18.642973
   2      -18.628192
   3      -12.018041
   4      -12.011773
   5      -11.850478
   6      -11.847293
   7      -11.715644
   8      -11.588815
   9      -11.544156
  10      -11.469504
  11      -11.351762
  12      -11.344637
  13       -8.976077
  14       -7.370283
  15       -6.324938
  16       -6.280748
  17       -5.844895
  18       -5.842798
  19       -5.104702
  20       -0.910190
  21        1.558603
  22        1.584471
  23        2.271296
  24        2.640585
  25        2.935256
  26        3.434993
  27        3.965949
  28        4.313187
  29        4.778560
  30        5.057300
  31        5.448250
  32        6.207916
 
 -0.1128814E+00  0.2261017E+00  0.0000000E+00  0.5555556E-02
   1      -18.634517
   2      -18.620390
   3      -12.015486
   4      -12.007954
   5      -11.853002
   6      -11.838427
   7      -11.706198
   8      -11.598159
   9      -11.549558
  10      -11.467931
  11      -11.348168
  12      -11.341736
  13       -8.943213
  14       -7.379748
  15       -6.376558
  16       -6.315459
  17       -5.866502
  18       -5.863908
  19       -5.076284
  20       -0.857979
  21        1.419312
  22        1.659856
  23        2.192910
  24        2.670700
  25        2.952595
  26        3.473024
  27        3.998429
  28        4.252470
  29        4.813068
  30        5.101485
  31        5.434968
  32        6.238152
 
 -0.1185254E+00  0.2374068E+00  0.0000000E+00  0.5555556E-02
   1      -18.625853
   2      -18.612382
   3      -12.012846
   4      -12.003999
   5      -11.855434
   6      -11.829524
   7      -11.696610
   8      -11.607523
   9      -11.554597
  10      -11.466457
  11      -11.344646
  12      -11.338787
  13       -8.909548
  14       -7.391157
  15       -6.427378
  16       -6.347403
  17       -5.891587
  18       -5.884072
  19       -5.046922
  20       -0.808129
  21        1.283095
  22        1.733274
  23        2.106007
  24        2.702265
  25        2.978834
  26        3.514475
  27        4.032269
  28        4.194319
  29        4.848989
  30        5.148809
  31        5.416628
  32        6.258608
 
 -0.1241695E+00  0.2487119E+00  0.0000000E+00  0.5555556E-02
   1      -18.617010
   2      -18.604194
   3      -12.010118
   4      -11.999929
   5      -11.857755
   6      -11.820645
   7      -11.686974
   8      -11.616861
   9      -11.559150
  10      -11.465095
  11      -11.341250
  12      -11.335776
  13       -8.875209
  14       -7.404594
  15       -6.477073
  16       -6.376299
  17       -5.918073
  18       -5.905350
  19       -5.016663
  20       -0.761452
  21        1.150898
  22        1.801668
  23        2.016165
  24        2.735027
  25        3.011427
  26        3.558398
  27        4.067516
  28        4.140654
  29        4.886053
  30        5.198800
  31        5.393915
  32        6.272627
 
 -0.1298136E+00  0.2600169E+00  0.0000000E+00  0.5555556E-02
   1      -18.608020
   2      -18.595854
   3      -12.007294
   4      -11.995771
   5      -11.859950
   6      -11.811859
   7      -11.677410
   8      -11.626136
   9      -11.563065
  10      -11.463852
  11      -11.338036
  12      -11.332691
  13       -8.840344
  14       -7.420088
  15       -6.525352
  16       -6.401965
  17       -5.945968
  18       -5.927748
  19       -4.985573
  20       -0.718930
  21        1.023761
  22        1.844625
  23        1.945345
  24        2.768810
  25        3.048380
  26        3.603888
  27        4.093497
  28        4.104316
  29        4.923696
  30        5.251069
  31        5.368037
  32        6.256306
 
 -0.1354576E+00  0.2713220E+00  0.0000000E+00  0.5555556E-02
   1      -18.598912
   2      -18.587387
   3      -12.004368
   4      -11.991552
   5      -11.862001
   6      -11.803242
   7      -11.668059
   8      -11.635317
   9      -11.566154
  10      -11.462735
  11      -11.335058
  12      -11.329518
  13       -8.805095
  14       -7.437589
  15       -6.571917
  16       -6.424274
  17       -5.975247
  18       -5.951249
  19       -4.953692
  20       -0.681770
  21        0.902913
  22        1.788814
  23        1.967627
  24        2.803489
  25        3.088165
  26        3.649894
  27        4.055438
  28        4.142585
  29        4.960791
  30        5.305259
  31        5.340959
  32        6.236968
 
 -0.1411017E+00  0.2826271E+00  0.0000000E+00  0.5555556E-02
   1      -18.589719
   2      -18.578822
   3      -12.001330
   4      -11.987302
   5      -11.863892
   6      -11.794882
   7      -11.659088
   8      -11.644380
   9      -11.568195
  10      -11.461748
  11      -11.332368
  12      -11.326243
  13       -8.769627
  14       -7.456990
  15       -6.616474
  16       -6.443207
  17       -6.005907
  18       -5.975844
  19       -4.921071
  20       -0.651482
  21        0.789854
  22        1.693740
  23        2.023653
  24        2.838974
  25        3.129607
  26        3.695064
  27        4.029139
  28        4.182608
  29        4.995080
  30        5.315923
  31        5.361046
  32        6.214630
 
 -0.1467458E+00  0.2939322E+00  0.0000000E+00  0.5555556E-02
   1      -18.580471
   2      -18.570189
   3      -11.998175
   4      -11.983053
   5      -11.865607
   6      -11.786877
   7      -11.653313
   8      -11.650677
   9      -11.568936
  10      -11.460896
  11      -11.330013
  12      -11.322853
  13       -8.734105
  14       -7.478116
  15       -6.658751
  16       -6.458824
  17       -6.037906
  18       -6.001521
  19       -4.887749
  20       -0.629915
  21        0.686408
  22        1.593690
  23        2.078836
  24        2.875212
  25        3.171842
  26        3.737762
  27        4.017751
  28        4.224483
  29        5.022308
  30        5.298206
  31        5.418061
  32        6.196168
 
 -0.1523898E+00  0.3052373E+00  0.0000000E+00  0.5555556E-02
   1      -18.571200
   2      -18.561514
   3      -11.994893
   4      -11.978840
   5      -11.867127
   6      -11.779335
   7      -11.662093
   8      -11.643001
   9      -11.568135
  10      -11.460186
  11      -11.328039
  12      -11.319336
  13       -8.698706
  14       -7.500742
  15       -6.698494
  16       -6.471254
  17       -6.071228
  18       -6.028243
  19       -4.853759
  20       -0.619227
  21        0.594702
  22        1.492868
  23        2.128374
  24        2.912180
  25        3.214372
  26        3.776712
  27        4.023866
  28        4.268364
  29        5.036158
  30        5.295117
  31        5.475940
  32        6.176321
 
 -0.1580339E+00  0.3165424E+00  0.0000000E+00  0.5555556E-02
   1      -18.561938
   2      -18.552827
   3      -11.991481
   4      -11.974698
   5      -11.868431
   6      -11.772371
   7      -11.670724
   8      -11.636128
   9      -11.565628
  10      -11.459627
  11      -11.326484
  12      -11.315681
  13       -8.663615
  14       -7.524584
  15       -6.735450
  16       -6.480696
  17       -6.105826
  18       -6.055992
  19       -4.819126
  20       -0.621673
  21        0.516967
  22        1.392529
  23        2.170269
  24        2.949886
  25        3.257169
  26        3.812405
  27        4.047888
  28        4.314411
  29        5.032293
  30        5.311939
  31        5.534277
  32        6.162910
 
 -0.1636780E+00  0.3278475E+00  0.0000000E+00  0.5555556E-02
   1      -18.552716
   2      -18.544155
   3      -11.987934
   4      -11.970663
   5      -11.869495
   6      -11.766092
   7      -11.679201
   8      -11.629990
   9      -11.561406
  10      -11.459230
  11      -11.325380
  12      -11.311879
  13       -8.629012
  14       -7.549335
  15       -6.769376
  16       -6.487386
  17       -6.141633
  18       -6.084727
  19       -4.783866
  20       -0.639174
  21        0.455098
  22        1.293316
  23        2.203180
  24        2.988364
  25        3.300736
  26        3.847670
  27        4.087228
  28        4.362781
  29        5.013152
  30        5.347000
  31        5.592500
  32        6.178356
 
 -0.1693220E+00  0.3391525E+00  0.0000000E+00  0.5555556E-02
   1      -18.543564
   2      -18.535526
   3      -11.984254
   4      -11.966773
   5      -11.870294
   6      -11.760590
   7      -11.687528
   8      -11.624352
   9      -11.555638
  10      -11.459010
  11      -11.324753
  12      -11.307923
  13       -8.595087
  14       -7.574663
  15       -6.800073
  16       -6.491611
  17       -6.178582
  18       -6.114406
  19       -4.747986
  20       -0.672708
  21        0.410059
  22        1.195645
  23        2.226229
  24        3.027680
  25        3.346034
  26        3.885960
  27        4.137899
  28        4.413620
  29        4.984881
  30        5.394955
  31        5.650085
  32        6.187046
 
 -0.1749661E+00  0.3504576E+00  0.0000000E+00  0.5555556E-02
   1      -18.534512
   2      -18.526968
   3      -11.980446
   4      -11.963064
   5      -11.870798
   6      -11.755922
   7      -11.695710
   8      -11.618884
   9      -11.548622
  10      -11.458986
  11      -11.324622
  12      -11.303809
  13       -8.562017
  14       -7.600254
  15       -6.827347
  16       -6.493679
  17       -6.216566
  18       -6.144987
  19       -4.711475
  20       -0.721869
  21        0.381433
  22        1.099815
  23        2.239071
  24        3.067921
  25        3.394215
  26        3.929460
  27        4.196497
  28        4.467051
  29        4.952297
  30        5.451520
  31        5.706348
  32        6.125683
 
 -0.1806102E+00  0.3617627E+00  0.0000000E+00  0.5555556E-02
   1      -18.525590
   2      -18.518510
   3      -11.976521
   4      -11.959571
   5      -11.870971
   6      -11.752096
   7      -11.703756
   8      -11.613269
   9      -11.540692
  10      -11.459182
  11      -11.324995
  12      -11.299536
  13       -8.529975
  14       -7.625795
  15       -6.851056
  16       -6.493948
  17       -6.255428
  18       -6.176420
  19       -4.674317
  20       -0.784917
  21        0.367489
  22        1.006057
  23        2.241932
  24        3.109193
  25        3.446293
  26        3.978764
  27        4.260782
  28        4.523159
  29        4.918352
  30        5.514131
  31        5.760101
  32        6.114655
 
 -0.1862542E+00  0.3730678E+00  0.0000000E+00  0.5555556E-02
   1      -18.516824
   2      -18.510178
   3      -11.972496
   4      -11.956328
   5      -11.870777
   6      -11.749065
   7      -11.711679
   8      -11.607277
   9      -11.532148
  10      -11.459626
  11      -11.325874
  12      -11.295107
  13       -8.499106
  14       -7.650993
  15       -6.871096
  16       -6.492832
  17       -6.294940
  18       -6.208647
  19       -4.636476
  20       -0.859318
  21        0.365714
  22        0.914551
  23        2.235545
  24        3.151617
  25        3.502898
  26        4.033412
  27        4.329427
  28        4.581979
  29        4.884778
  30        5.581515
  31        5.810201
  32        6.094114
 
 -0.1918983E+00  0.3843729E+00  0.0000000E+00  0.5555556E-02
   1      -18.508244
   2      -18.501997
   3      -11.968396
   4      -11.953364
   5      -11.870170
   6      -11.746734
   7      -11.719489
   8      -11.600790
   9      -11.523229
  10      -11.460354
  11      -11.327246
  12      -11.290525
  13       -8.469536
  14       -7.675573
  15       -6.887413
  16       -6.490925
  17       -6.334663
  18       -6.241582
  19       -4.597906
  20       -0.942385
  21        0.373456
  22        0.825441
  23        2.220999
  24        3.195320
  25        3.564207
  26        4.092430
  27        4.401680
  28        4.643428
  29        4.852718
  30        5.652879
  31        5.854159
  32        6.072629
 
 -0.1975424E+00  0.3956780E+00  0.0000000E+00  0.5555556E-02
   1      -18.499874
   2      -18.493992
   3      -11.964251
   4      -11.950702
   5      -11.869103
   6      -11.744970
   7      -11.727201
   8      -11.593789
   9      -11.514117
  10      -11.461408
  11      -11.329091
  12      -11.285800
  13       -8.441354
  14       -7.699284
  15       -6.900011
  16       -6.489337
  17       -6.373631
  18       -6.275159
  19       -4.558544
  20       -1.031708
  21        0.388365
  22        0.738842
  23        2.199548
  24        3.240429
  25        3.630024
  26        4.154668
  27        4.477136
  28        4.706999
  29        4.823324
  30        5.727624
  31        5.881999
  32        6.016451
 
 -0.2031864E+00  0.4069831E+00  0.0000000E+00  0.5555556E-02
   1      -18.491739
   2      -18.486188
   3      -11.960100
   4      -11.948360
   5      -11.867528
   6      -11.743621
   7      -11.734828
   8      -11.586321
   9      -11.504946
  10      -11.462836
  11      -11.331377
  12      -11.280946
  13       -8.414612
  14       -7.721919
  15       -6.908965
  16       -6.490948
  17       -6.409070
  18       -6.309282
  19       -4.518308
  20       -1.125333
  21        0.408554
  22        0.654848
  23        2.172459
  24        3.287062
  25        3.699913
  26        4.218957
  27        4.555605
  28        4.766180
  29        4.803503
  30        5.805651
  31        5.879186
  32        6.013675
 
 -0.2088305E+00  0.4182881E+00  0.0000000E+00  0.5555556E-02
   1      -18.483863
   2      -18.478609
   3      -11.955984
   4      -11.946345
   5      -11.865394
   6      -11.742587
   7      -11.742332
   8      -11.578477
   9      -11.495815
  10      -11.464692
  11      -11.334057
  12      -11.275977
  13       -8.389319
  14       -7.743290
  15       -6.914432
  16       -6.503351
  17       -6.433469
  18       -6.343850
  19       -4.477117
  20       -1.221753
  21        0.432605
  22        0.573533
  23        2.140896
  24        3.335322
  25        3.773313
  26        4.284174
  27        4.637031
  28        4.763802
  29        4.850632
  30        5.850298
  31        5.887452
  32        6.034245
 
 -0.2144746E+00  0.4295932E+00  0.0000000E+00  0.5555556E-02
   1      -18.476267
   2      -18.471274
   3      -11.951947
   4      -11.944658
   5      -11.862655
   6      -11.749882
   7      -11.741569
   8      -11.570362
   9      -11.486800
  10      -11.467040
  11      -11.337075
  12      -11.270912
  13       -8.365431
  14       -7.763234
  15       -6.916629
  16       -6.532334
  17       -6.441078
  18       -6.378734
  19       -4.434853
  20       -1.319840
  21        0.459468
  22        0.494987
  23        2.105874
  24        3.385291
  25        3.849635
  26        4.349268
  27        4.721428
  28        4.743075
  29        4.921480
  30        5.812462
  31        5.967569
  32        6.065140
 
 -0.2201186E+00  0.4408983E+00  0.0000000E+00  0.5555556E-02
   1      -18.468972
   2      -18.464207
   3      -11.948031
   4      -11.943285
   5      -11.859272
   6      -11.757325
   7      -11.740610
   8      -11.562089
   9      -11.477960
  10      -11.469946
  11      -11.340365
  12      -11.265773
  13       -8.342864
  14       -7.781635
  15       -6.915870
  16       -6.570707
  17       -6.439125
  18       -6.413793
  19       -4.391399
  20       -1.418762
  21        0.419113
  22        0.488567
  23        2.068233
  24        3.437022
  25        3.928301
  26        4.413279
  27        4.724132
  28        4.808860
  29        4.995823
  30        5.774389
  31        6.030628
  32        6.094357
 
 -0.2257627E+00  0.4522034E+00  0.0000000E+00  0.5555556E-02
   1      -18.461995
   2      -18.457426
   3      -11.944279
   4      -11.942197
   5      -11.855222
   6      -11.764722
   7      -11.739556
   8      -11.553764
   9      -11.473484
  10      -11.469344
  11      -11.343851
  12      -11.260584
  13       -8.321496
  14       -7.798400
  15       -6.912552
  16       -6.612467